/*--------------------------------*- C++ -*----------------------------------*\
| =========                 |                                                 |
| \\      /  F ield         | foam-extend: Open Source CFD                    |
|  \\    /   O peration     | Version:     4.1                                |
|   \\  /    A nd           | Web:         http://www.foam-extend.org         |
|    \\/     M anipulation  |                                                 |
\*---------------------------------------------------------------------------*/
FoamFile
{
    version     2.0;
    format      ascii;
    class       regIOobject;
    location    "0.35/uniform";
    object      profilingInfo;
}
// * * * * * * * * * * * * * * * * * * * * * * * * * * * * * * * * * * * * * //

profilingInfo
(

    {
        id              15;
        parentId        14;
        description     "Foam::Time::writeObject - outputTime";
        calls           7;
        totalTime       3.381572;
        childTime       0;
        onStack         1;
    }

    {
        id              14;
        parentId        1;
        description     "Foam::Time::writeObject";
        calls           7;
        totalTime       3.381649;
        childTime       3.381572;
        onStack         1;
    }

    {
        id              1;
        description     "application::main";
        calls           1;
        totalTime       28.375026;
        childTime       16.373025;
        onStack         1;
    }

    {
        id              13;
        parentId        1;
        description     "FO::forces::execute";
        calls           34;
        totalTime       0.09281;
        childTime       0;
        onStack         0;
    }

    {
        id              2;
        parentId        1;
        description     "functionObjectList::read";
        calls           1;
        totalTime       0.009657;
        childTime       0;
        onStack         0;
    }

    {
        id              7;
        parentId        1;
        description     "fvMatrix::solve_U";
        calls           70;
        totalTime       1.361636;
        childTime       1.290478;
        onStack         0;
    }

    {
        id              3;
        parentId        1;
        description     "fvMatrix::solve_cellMotionU";
        calls           70;
        totalTime       0.615336;
        childTime       0.549983;
        onStack         0;
    }

    {
        id              11;
        parentId        1;
        description     "fvMatrix::solve_p";
        calls           420;
        totalTime       10.911937;
        childTime       10.830069;
        onStack         0;
    }

    {
        id              8;
        parentId        7;
        description     "lduMatrix::solver_Ux";
        calls           70;
        totalTime       0.399083;
        childTime       0;
        onStack         0;
    }

    {
        id              9;
        parentId        7;
        description     "lduMatrix::solver_Uy";
        calls           70;
        totalTime       0.450742;
        childTime       0;
        onStack         0;
    }

    {
        id              10;
        parentId        7;
        description     "lduMatrix::solver_Uz";
        calls           70;
        totalTime       0.440653;
        childTime       0;
        onStack         0;
    }

    {
        id              4;
        parentId        3;
        description     "lduMatrix::solver_cellMotionUx";
        calls           70;
        totalTime       0.124253;
        childTime       0;
        onStack         0;
    }

    {
        id              5;
        parentId        3;
        description     "lduMatrix::solver_cellMotionUy";
        calls           70;
        totalTime       0.304903;
        childTime       0;
        onStack         0;
    }

    {
        id              6;
        parentId        3;
        description     "lduMatrix::solver_cellMotionUz";
        calls           70;
        totalTime       0.120827;
        childTime       0;
        onStack         0;
    }

    {
        id              12;
        parentId        11;
        description     "lduMatrix::solver_p";
        calls           420;
        totalTime       10.830069;
        childTime       0;
        onStack         0;
    }
);


// ************************************************************************* //
