/*--------------------------------*- C++ -*----------------------------------*\
| =========                 |                                                 |
| \\      /  F ield         | foam-extend: Open Source CFD                    |
|  \\    /   O peration     | Version:     4.1                                |
|   \\  /    A nd           | Web:         http://www.foam-extend.org         |
|    \\/     M anipulation  |                                                 |
\*---------------------------------------------------------------------------*/
FoamFile
{
    version     2.0;
    format      ascii;
    class       volVectorField;
    location    "0.4";
    object      cellMotionU;
}
// * * * * * * * * * * * * * * * * * * * * * * * * * * * * * * * * * * * * * //

dimensions      [0 1 -1 0 0 0 0];

internalField   nonuniform List<vector> 
35840
(
(-1.28831431e-21 1.41611969e-09 -2.44989794e-22)
(-3.88078885e-21 4.26576605e-09 -7.37981691e-22)
(-6.56522619e-21 7.21644522e-09 -1.24845837e-21)
(-9.46123258e-21 1.03995532e-08 -1.7991619e-21)
(-1.26865056e-20 1.39444024e-08 -2.41247043e-21)
(-1.63585996e-20 1.79801535e-08 -3.11073346e-21)
(-2.05960021e-20 2.26369956e-08 -3.91647592e-21)
(-2.55183223e-20 2.80463513e-08 -4.85243332e-21)
(-3.12454353e-20 3.43399339e-08 -5.94138834e-21)
(-3.78954456e-20 4.16475067e-08 -7.20578258e-21)
(-4.55813553e-20 5.00932191e-08 -8.66708237e-21)
(-5.4406373e-20 5.97904491e-08 -1.03448858e-20)
(-6.4457866e-20 7.08351565e-08 -1.22557727e-20)
(-7.58000681e-20 8.32978693e-08 -1.44119173e-20)
(-8.84657905e-20 9.72145776e-08 -1.68195141e-20)
(-1.02447551e-19 1.12576991e-07 -1.94770917e-20)
(-1.17688719e-19 1.29322817e-07 -2.23738339e-20)
(-1.34075463e-19 1.47326921e-07 -2.54880518e-20)
(-1.51430419e-19 1.66394384e-07 -2.8785987e-20)
(-1.69509104e-19 1.86256575e-07 -3.2221137e-20)
(-1.88000078e-19 2.06571335e-07 -3.57342931e-20)
(-2.06529689e-19 2.26928205e-07 -3.92544499e-20)
(-2.24671969e-19 2.46859295e-07 -4.27006916e-20)
(-2.41963771e-19 2.65855918e-07 -4.59850719e-20)
(-2.57924706e-19 2.83390474e-07 -4.90164001e-20)
(-2.72080822e-19 2.98942456e-07 -5.17047358e-20)
(-2.8399046e-19 3.12026822e-07 -5.396629e-20)
(-2.93270391e-19 3.22222694e-07 -5.57283779e-20)
(-3.8813833e-21 4.26641987e-09 -7.38094734e-22)
(-1.16891174e-20 1.28486464e-08 -2.22283216e-21)
(-1.97705089e-20 2.17315081e-08 -3.75959907e-21)
(-2.84885111e-20 3.13137422e-08 -5.41740729e-21)
(-3.81997725e-20 4.19871955e-08 -7.26406674e-21)
(-4.9260404e-20 5.41431388e-08 -9.36728042e-21)
(-6.20294547e-20 6.81760794e-08 -1.17953036e-20)
(-7.68696426e-20 8.44845569e-08 -1.46170805e-20)
(-9.41448999e-20 1.03468438e-07 -1.79017748e-20)
(-1.1421432e-19 1.25522256e-07 -2.17176163e-20)
(-1.37422164e-19 1.5102422e-07 -2.61299972e-20)
(-1.64083707e-19 1.80320656e-07 -3.1198779e-20)
(-1.9446694e-19 2.13705891e-07 -3.69748104e-20)
(-2.28770421e-19 2.5139792e-07 -4.34957171e-20)
(-2.67098039e-19 2.93510679e-07 -5.0781105e-20)
(-3.09431915e-19 3.40024283e-07 -5.88274132e-20)
(-3.55605247e-19 3.90755223e-07 -6.76027628e-20)
(-4.05277491e-19 4.45329115e-07 -7.70422515e-20)
(-4.57914688e-19 5.03159137e-07 -8.70442352e-20)
(-5.12778083e-19 5.63433555e-07 -9.74681874e-20)
(-5.68924106e-19 6.25115752e-07 -1.08134723e-19)
(-6.25218386e-19 6.86959638e-07 -1.18828283e-19)
(-6.80365515e-19 7.47542375e-07 -1.29302817e-19)
(-7.32954977e-19 8.0531481e-07 -1.39290516e-19)
(-7.81521855e-19 8.58668151e-07 -1.48513345e-19)
(-8.24619165e-19 9.06013358e-07 -1.56696767e-19)
(-8.60896881e-19 9.45867901e-07 -1.63584723e-19)
(-8.89181646e-19 9.76943235e-07 -1.68954728e-19)
(-6.56741943e-21 7.21885794e-09 -1.24887544e-21)
(-1.97740968e-20 2.17354558e-08 -3.76028135e-21)
(-3.34409236e-20 3.6757544e-08 -6.35917163e-21)
(-4.81909235e-20 5.29695852e-08 -9.16400614e-21)
(-6.46361144e-20 7.10440042e-08 -1.22911461e-20)
(-8.3388144e-20 9.16528391e-08 -1.58568733e-20)
(-1.05064865e-19 1.15474953e-07 -1.99786369e-20)
(-1.30292127e-19 1.43197991e-07 -2.47753899e-20)
(-1.59700044e-19 1.75514263e-07 -3.03668735e-20)
(-1.93913009e-19 2.13109753e-07 -3.68717137e-20)
(-2.33532833e-19 2.56645576e-07 -4.44042084e-20)
(-2.79114583e-19 3.0673141e-07 -5.30697275e-20)
(-3.31135049e-19 3.63890834e-07 -6.29587136e-20)
(-3.89954308e-19 4.28519104e-07 -7.41393722e-20)
(-4.55771575e-19 5.00834646e-07 -8.66492818e-20)
(-5.28577427e-19 5.80826599e-07 -1.0048632e-19)
(-6.08105487e-19 6.68201774e-07 -1.15599499e-19)
(-6.93787699e-19 7.62335585e-07 -1.31880491e-19)
(-7.84718189e-19 8.62232416e-07 -1.49156799e-19)
(-8.79631303e-19 9.66501587e-07 -1.67187636e-19)
(-9.76899423e-19 1.07335502e-06 -1.85663557e-19)
(-1.07455548e-18 1.18063204e-06 -2.04210802e-19)
(-1.17034353e-18 1.28585494e-06 -2.2240094e-19)
(-1.26179829e-18 1.38631636e-06 -2.39766013e-19)
(-1.34635153e-18 1.47919614e-06 -2.55818744e-19)
(-1.42145968e-18 1.56170128e-06 -2.70076736e-19)
(-1.48474378e-18 1.63121965e-06 -2.82088986e-19)
(-1.53413061e-18 1.68547483e-06 -2.91462591e-19)
(-9.46575842e-21 1.04045332e-08 -1.80002254e-21)
(-2.84978415e-20 3.13240112e-08 -5.41918158e-21)
(-4.81980361e-20 5.29774163e-08 -9.16535868e-21)
(-6.94842028e-20 7.63731414e-08 -1.32130692e-20)
(-9.32589033e-20 1.02502839e-07 -1.77339096e-20)
(-1.20426465e-19 1.32360117e-07 -2.28997962e-20)
(-1.51903936e-19 1.66952563e-07 -2.88850426e-20)
(-1.88624898e-19 2.07305902e-07 -3.58670765e-20)
(-2.31535012e-19 2.54459082e-07 -4.40255825e-20)
(-2.81578159e-19 3.09449012e-07 -5.35398573e-20)
(-3.39672158e-19 3.73283847e-07 -6.45841797e-20)
(-4.06673268e-19 4.46903958e-07 -7.73210503e-20)
(-4.83329197e-19 5.31130283e-07 -9.18922475e-20)
(-5.70221107e-19 6.26600599e-07 -1.08407796e-19)
(-6.67696173e-19 7.33695457e-07 -1.2693315e-19)
(-7.75793672e-19 8.52457025e-07 -1.47475156e-19)
(-8.94169131e-19 9.82505845e-07 -1.6996767e-19)
(-1.02202277e-18 1.12296234e-06 -1.94258005e-19)
(-1.15804001e-18 1.27238158e-06 -2.20095698e-19)
(-1.3003528e-18 1.42871096e-06 -2.47125257e-19)
(-1.44653091e-18 1.58928083e-06 -2.74884617e-19)
(-1.59361142e-18 1.75083688e-06 -3.02810846e-19)
(-1.73817223e-18 1.90962103e-06 -3.30254203e-19)
(-1.8764518e-18 2.06150292e-06 -3.56500946e-19)
(-2.0045123e-18 2.20215902e-06 -3.8080432e-19)
(-2.11843764e-18 2.32728994e-06 -4.02422095e-19)
(-2.21455235e-18 2.43286067e-06 -4.20657995e-19)
(-2.28964303e-18 2.51534352e-06 -4.3490355e-19)
(-1.26939435e-20 1.3952589e-08 -2.41388481e-21)
(-3.82165316e-20 4.20056463e-08 -7.26725364e-21)
(-6.46530736e-20 7.10626833e-08 -1.2294371e-20)
(-9.32697814e-20 1.02514825e-07 -1.77359781e-20)
(-1.25314391e-19 1.37732972e-07 -2.38292864e-20)
(-1.62042092e-19 1.78096217e-07 -3.08128989e-20)
(-2.0473287e-19 2.25010873e-07 -3.89300968e-20)
(-2.5469887e-19 2.79918521e-07 -4.84302251e-20)
(-3.13280141e-19 3.4429129e-07 -5.95678676e-20)
(-3.81827071e-19 4.19612505e-07 -7.25994863e-20)
(-4.6166788e-19 5.07340914e-07 -8.77772186e-20)
(-5.54059794e-19 6.08856995e-07 -1.05339571e-19)
(-6.60123131e-19 7.25390509e-07 -1.25498869e-19)
(-7.80758583e-19 8.57929618e-07 -1.48425515e-19)
(-9.16549484e-19 1.00711356e-06 -1.74229414e-19)
(-1.06765292e-18 1.17311312e-06 -2.02939295e-19)
(-1.23368588e-18 1.35550569e-06 -2.34481123e-19)
(-1.41361537e-18 1.55315479e-06 -2.68657308e-19)
(-1.60566385e-18 1.76410644e-06 -3.05128868e-19)
(-1.80724336e-18 1.985517e-06 -3.43403084e-19)
(-2.01493246e-18 2.21362817e-06 -3.82829329e-19)
(-2.22450936e-18 2.44380349e-06 -4.22605577e-19)
(-2.43105129e-18 2.67063763e-06 -4.61797464e-19)
(-2.62910479e-18 2.88814336e-06 -4.99370752e-19)
(-2.81292381e-18 3.09001293e-06 -5.34236564e-19)
(-2.97676356e-18 3.26994052e-06 -5.65307051e-19)
(-3.11520889e-18 3.42198248e-06 -5.91557469e-19)
(-3.22350877e-18 3.54092428e-06 -6.12089285e-19)
(-1.63694608e-20 1.79921115e-08 -3.11279881e-21)
(-4.92861115e-20 5.41714504e-08 -9.37216888e-21)
(-8.34174802e-20 9.16851617e-08 -1.58624517e-20)
(-1.20451751e-19 1.3238799e-07 -2.29046043e-20)
(-1.62057459e-19 1.78113163e-07 -3.08158209e-20)
(-2.09921829e-19 2.30714416e-07 -3.99168069e-20)
(-2.65777424e-19 2.92095221e-07 -5.05368275e-20)
(-3.31415388e-19 3.64223278e-07 -6.30162024e-20)
(-4.0868292e-19 4.49127651e-07 -7.77057944e-20)
(-4.9946245e-19 5.48875812e-07 -9.49630144e-20)
(-6.05630065e-19 6.65527872e-07 -1.15143876e-19)
(-7.28990808e-19 8.01065421e-07 -1.38590651e-19)
(-8.71189185e-19 9.57293159e-07 -1.65614812e-19)
(-1.03359452e-18 1.13571297e-06 -1.96475211e-19)
(-1.21716295e-18 1.33737234e-06 -2.31351832e-19)
(-1.42228058e-18 1.56269232e-06 -2.70316016e-19)
(-1.64859612e-18 1.81128384e-06 -3.13298725e-19)
(-1.89485508e-18 2.08176598e-06 -3.60059198e-19)
(-2.15875195e-18 2.37160402e-06 -4.10157098e-19)
(-2.43682004e-18 2.67698885e-06 -4.62931906e-19)
(-2.72438085e-18 2.99278175e-06 -5.17493699e-19)
(-3.01557404e-18 3.31254766e-06 -5.72729259e-19)
(-3.30348535e-18 3.62869573e-06 -6.27326752e-19)
(-3.58038166e-18 3.93273751e-06 -6.79820627e-19)
(-3.83805104e-18 4.21566007e-06 -7.28656226e-19)
(-4.06823103e-18 4.46839593e-06 -7.72270867e-19)
(-4.26309414e-18 4.68235555e-06 -8.0918547e-19)
(-4.41574677e-18 4.84997461e-06 -8.38098487e-19)
(-2.061077e-20 2.26532594e-08 -3.91928409e-21)
(-6.20656954e-20 6.8216003e-08 -1.18021949e-20)
(-1.05109494e-19 1.1552414e-07 -1.99871232e-20)
(-1.51947883e-19 1.6700102e-07 -2.88933991e-20)
(-2.0476905e-19 2.25050779e-07 -3.8936976e-20)
(-2.65799304e-19 2.92119362e-07 -5.05409878e-20)
(-3.37343067e-19 3.70738362e-07 -6.41433204e-20)
(-4.21805534e-19 4.63549825e-07 -8.02008802e-20)
(-5.21694304e-19 5.73307913e-07 -9.9189851e-20)
(-6.39596324e-19 7.0285343e-07 -1.21601246e-19)
(-7.78126669e-19 8.55057413e-07 -1.47931095e-19)
(-9.39845112e-19 1.03272936e-06 -1.78664498e-19)
(-1.12713729e-18 1.23848662e-06 -2.14252952e-19)
(-1.34205875e-18 1.47458308e-06 -2.5508464e-19)
(-1.58614313e-18 1.74269859e-06 -3.01447931e-19)
(-1.86017944e-18 2.04369464e-06 -3.53489082e-19)
(-2.16396886e-18 2.37734764e-06 -4.11166152e-19)
(-2.49607741e-18 2.74207778e-06 -4.74202258e-19)
(-2.85360721e-18 3.13469858e-06 -5.42042547e-19)
(-3.23201547e-18 3.55021868e-06 -6.13820399e-19)
(-3.62501408e-18 3.98173221e-06 -6.88339101e-19)
(-4.02458335e-18 4.42043433e-06 -7.64075284e-19)
(-4.42112903e-18 4.8557939e-06 -8.39209502e-19)
(-4.80380034e-18 5.27590251e-06 -9.11687174e-19)
(-5.1609697e-18 5.66800095e-06 -9.79309803e-19)
(-5.48085243e-18 6.0191589e-06 -1.03985219e-18)
(-5.75222084e-18 6.31705817e-06 -1.09119695e-18)
(-5.9651464e-18 6.55080657e-06 -1.1314738e-18)
(-2.55373634e-20 2.8067327e-08 -4.85605396e-21)
(-7.69181333e-20 8.45379896e-08 -1.46263008e-20)
(-1.30356037e-19 1.43268442e-07 -2.47875419e-20)
(-1.88693736e-19 2.07381813e-07 -3.58801653e-20)
(-2.54763907e-19 2.7999026e-07 -4.84425908e-20)
(-3.31468672e-19 3.64282064e-07 -6.30263332e-20)
(-4.21837955e-19 4.63585598e-07 -8.02070441e-20)
(-5.29067158e-19 5.81410561e-07 -1.00591606e-19)
(-6.56526775e-19 7.21458344e-07 -1.2481987e-19)
(-8.07738889e-19 8.87595985e-07 -1.53560073e-19)
(-9.86316589e-19 1.0837894e-06 -1.87497181e-19)
(-1.19585906e-18 1.31398795e-06 -2.27312789e-19)
(-1.43979678e-18 1.58195435e-06 -2.73655538e-19)
(-1.7211827e-18 1.89103525e-06 -3.2710126e-19)
(-2.0424289e-18 2.24387232e-06 -3.88102846e-19)
(-2.40499385e-18 2.64205916e-06 -4.5693082e-19)
(-2.80903246e-18 3.08575773e-06 -5.3360702e-19)
(-3.25303028e-18 3.57329743e-06 -6.1783553e-19)
(-3.73345316e-18 4.10079144e-06 -7.08936857e-19)
(-4.24445405e-18 4.6618158e-06 -8.05793335e-19)
(-4.77768669e-18 5.24720566e-06 -9.06815139e-19)
(-5.32227893e-18 5.84502658e-06 -1.00993682e-18)
(-5.86501372e-18 6.44077359e-06 -1.11265322e-18)
(-6.39075134e-18 7.01783443e-06 -1.21210084e-18)
(-6.88310039e-18 7.5582257e-06 -1.30518554e-18)
(-7.32531089e-18 8.04357225e-06 -1.38875141e-18)
(-7.70132361e-18 8.45625801e-06 -1.45977787e-18)
(-7.99687473e-18 8.7806373e-06 -1.51558619e-18)
(-3.12684797e-20 3.43653285e-08 -5.94577001e-21)
(-9.42070002e-20 1.03536884e-07 -1.79135825e-20)
(-1.59789242e-19 1.75612598e-07 -3.03838333e-20)
(-2.31638839e-19 2.54573571e-07 -4.40453233e-20)
(-3.13387057e-19 3.44409207e-07 -5.9588195e-20)
(-4.08783211e-19 4.49238272e-07 -7.77248611e-20)
(-5.21775837e-19 5.73397851e-07 -9.92053508e-20)
(-6.56575648e-19 7.21512259e-07 -1.24829161e-19)
(-8.1767888e-19 8.98518382e-07 -1.55449539e-19)
(-1.00984544e-18 1.10964134e-06 -1.91969132e-19)
(-1.23803154e-18 1.36032013e-06 -2.35326926e-19)
(-1.5072611e-18 1.6560662e-06 -2.8647352e-19)
(-1.82242842e-18 2.00224647e-06 -3.46333289e-19)
(-2.18802238e-18 2.40378065e-06 -4.15751677e-19)
(-2.60776978e-18 2.86474985e-06 -4.95427168e-19)
(-3.08420052e-18 3.38791992e-06 -5.85828615e-19)
(-3.61814895e-18 3.97419486e-06 -6.87100719e-19)
(-4.20821773e-18 4.62202954e-06 -7.98962862e-19)
(-4.85024621e-18 5.3268474e-06 -9.20609391e-19)
(-5.53684239e-18 6.08052809e-06 -1.05062269e-18)
(-6.25705245e-18 6.87104575e-06 -1.18691305e-18)
(-6.99625012e-18 7.68234831e-06 -1.32670078e-18)
(-7.73632507e-18 8.49456448e-06 -1.46655512e-18)
(-8.45623082e-18 9.28460472e-06 -1.60250071e-18)
(-9.13291537e-18 1.00271819e-05 -1.73019535e-18)
(-9.74260451e-18 1.06962184e-05 -1.84517229e-18)
(-1.02623442e-17 1.12665376e-05 -1.94312919e-18)
(-1.06716484e-17 1.17156711e-05 -2.02023459e-18)
(-3.79195871e-20 4.16741296e-08 -7.2103725e-21)
(-1.1428862e-19 1.25604176e-07 -2.17317425e-20)
(-1.94037345e-19 2.13246815e-07 -3.6895353e-20)
(-2.81734187e-19 3.09621019e-07 -5.35695212e-20)
(-3.81997097e-19 4.19799967e-07 -7.26318101e-20)
(-4.99636632e-19 5.4906786e-07 -9.49961265e-20)
(-6.39755685e-19 7.03029152e-07 -1.21631539e-19)
(-8.07863347e-19 8.87733247e-07 -1.53583729e-19)
(-1.00991925e-18 1.10972275e-06 -1.91983159e-19)
(-1.2523118e-18 1.37600905e-06 -2.38040586e-19)
(-1.54179383e-18 1.69400119e-06 -2.93034393e-19)
(-1.88532853e-18 2.07133628e-06 -3.58280769e-19)
(-2.28984453e-18 2.51561041e-06 -4.35086557e-19)
(-2.76187731e-18 3.03398511e-06 -5.24680503e-19)
(-3.30709257e-18 3.63266462e-06 -6.28122153e-19)
(-3.92968844e-18 4.31624072e-06 -7.46188023e-19)
(-4.63169221e-18 5.08692218e-06 -8.79238216e-19)
(-5.41218238e-18 5.94368271e-06 -1.02706969e-18)
(-6.26648998e-18 6.88138608e-06 -1.18876669e-18)
(-7.18546133e-18 7.88997877e-06 -1.36256423e-18)
(-8.15489097e-18 8.95386884e-06 -1.54574531e-18)
(-9.15525186e-18 1.00516304e-05 -1.73459572e-18)
(-1.01618518e-17 1.11561753e-05 -1.92444002e-18)
(-1.11455228e-17 1.22355087e-05 -2.10977773e-18)
(-1.20738986e-17 1.32541298e-05 -2.28452846e-18)
(-1.29132528e-17 1.41750472e-05 -2.44237896e-18)
(-1.36307674e-17 1.49622667e-05 -2.57720646e-18)
(-1.41969987e-17 1.55834957e-05 -2.68353429e-18)
(-4.55939553e-20 5.01071834e-08 -8.66947698e-21)
(-1.37495409e-19 1.51105059e-07 -2.6143921e-20)
(-2.33711553e-19 2.56842531e-07 -4.44381848e-20)
(-3.39911067e-19 3.73547114e-07 -6.46295977e-20)
(-4.61933008e-19 5.07633116e-07 -8.78276184e-20)
(-6.05925516e-19 6.65853463e-07 -1.15200037e-19)
(-7.7841514e-19 8.55375348e-07 -1.47985924e-19)
(-9.86561266e-19 1.08405916e-06 -1.87543681e-19)
(-1.2382218e-18 1.36052996e-06 -2.35363078e-19)
(-1.54190595e-18 1.69412487e-06 -2.93055693e-19)
(-1.90675313e-18 2.09486934e-06 -3.62350122e-19)
(-2.34234259e-18 2.57326751e-06 -4.45054842e-19)
(-2.85840552e-18 3.13998615e-06 -5.43002377e-19)
(-3.46436334e-18 3.80534812e-06 -6.57960361e-19)
(-4.16870271e-18 4.57864726e-06 -7.91511663e-19)
(-4.97816228e-18 5.46725748e-06 -9.44899149e-19)
(-5.89675266e-18 6.47555927e-06 -1.11883959e-18)
(-6.92464096e-18 7.60371795e-06 -1.31331325e-18)
(-8.05696335e-18 8.84638296e-06 -1.52734183e-18)
(-9.28267877e-18 1.01914318e-05 -1.75877695e-18)
(-1.05836208e-17 1.16189309e-05 -2.00412907e-18)
(-1.19339414e-17 1.31005252e-05 -2.25847349e-18)
(-1.3300155e-17 1.45994856e-05 -2.51547122e-18)
(-1.46419664e-17 1.60716164e-05 -2.76753762e-18)
(-1.59140003e-17 1.74671503e-05 -3.00617698e-18)
(-1.70684226e-17 1.87336229e-05 -3.22247791e-18)
(-1.8058279e-17 1.98195345e-05 -3.40773369e-18)
(-1.88411976e-17 2.06784106e-05 -3.55412065e-18)
(-5.43150708e-20 5.96902589e-08 -1.03275236e-20)
(-1.64097832e-19 1.8033661e-07 -3.1201458e-20)
(-2.79399331e-19 3.07045025e-07 -5.31238574e-20)
(-4.07053951e-19 4.47323231e-07 -7.73934155e-20)
(-5.54454808e-19 6.09292208e-07 -1.05414655e-19)
(-7.29494657e-19 8.01620358e-07 -1.38686415e-19)
(-9.40357176e-19 1.03329342e-06 -1.78761814e-19)
(-1.19629368e-18 1.31446698e-06 -2.27395376e-19)
(-1.5076439e-18 1.65648823e-06 -2.86546242e-19)
(-1.88562157e-18 2.07165951e-06 -3.58336422e-19)
(-2.34252227e-18 2.57346577e-06 -4.45088954e-19)
(-2.89141242e-18 3.17623251e-06 -5.492671e-19)
(-3.54585077e-18 3.89482016e-06 -6.73419354e-19)
(-4.31928148e-18 4.74395868e-06 -8.20061822e-19)
(-5.22424354e-18 5.73738154e-06 -9.91525708e-19)
(-6.27127056e-18 6.88662079e-06 -1.18974652e-18)
(-7.46754594e-18 8.19953434e-06 -1.41600807e-18)
(-8.81532654e-18 9.67857938e-06 -1.67064489e-18)
(-1.0310197e-17 1.13188996e-05 -1.95271616e-18)
(-1.19393099e-17 1.31063962e-05 -2.25968207e-18)
(-1.36798345e-17 1.50160259e-05 -2.58712546e-18)
(-1.54979046e-17 1.70106457e-05 -2.92857405e-18)
(-1.73483957e-17 1.90407665e-05 -3.27548332e-18)
(-1.91758471e-17 2.10455619e-05 -3.61743538e-18)
(-2.09167564e-17 2.29553825e-05 -3.9425899e-18)
(-2.25032942e-17 2.46958301e-05 -4.2383881e-18)
(-2.38682179e-17 2.61931466e-05 -4.49246134e-18)
(-2.49504528e-17 2.73803371e-05 -4.69364291e-18)
(-6.44804679e-20 7.08601831e-08 -1.22600681e-20)
(-1.94624153e-19 2.13879208e-07 -3.70046955e-20)
(-3.314305e-19 3.64216409e-07 -6.30148777e-20)
(-4.83581316e-19 5.31408558e-07 -9.19401689e-20)
(-6.60617824e-19 7.25935602e-07 -1.25592886e-19)
(-8.72083948e-19 9.58278067e-07 -1.65784859e-19)
(-1.12805836e-18 1.23950066e-06 -2.14427978e-19)
(-1.44050298e-18 1.58273253e-06 -2.73789702e-19)
(-1.82314653e-18 2.00303785e-06 -3.46469678e-19)
(-2.290435e-18 2.51626163e-06 -4.35198666e-19)
(-2.85889257e-18 3.1405235e-06 -5.43094808e-19)
(-3.54613262e-18 3.89513139e-06 -6.73472816e-19)
(-4.37091452e-18 4.80064422e-06 -8.2985093e-19)
(-5.35220929e-18 5.87784815e-06 -1.01576915e-18)
(-6.50831201e-18 7.14678516e-06 -1.23461592e-18)
(-7.85532362e-18 8.62509084e-06 -1.48933579e-18)
(-9.40534942e-18 1.03260218e-05 -1.78208494e-18)
(-1.11643164e-17 1.22560646e-05 -2.11381826e-18)
(-1.31294329e-17 1.44121515e-05 -2.48381502e-18)
(-1.52865245e-17 1.67787379e-05 -2.88919035e-18)
(-1.76075412e-17 1.93250667e-05 -3.32445092e-18)
(-2.00486724e-17 2.2003097e-05 -3.78117804e-18)
(-2.25495815e-17 2.47466604e-05 -4.2479321e-18)
(-2.5034285e-17 2.74724215e-05 -4.71046945e-18)
(-2.74141095e-17 3.00831182e-05 -5.15233989e-18)
(-2.95929059e-17 3.24732807e-05 -5.55588127e-18)
(-3.14742737e-17 3.4537157e-05 -5.90354902e-18)
(-3.29700102e-17 3.61779831e-05 -6.17942754e-18)
(-7.58435194e-20 8.33458625e-08 -1.44201774e-20)
(-2.28920932e-19 2.51564038e-07 -4.35243294e-20)
(-3.90223081e-19 4.2881563e-07 -7.41904646e-20)
(-5.70621434e-19 6.27042099e-07 -1.0848389e-19)
(-7.8148332e-19 8.58727955e-07 -1.48563261e-19)
(-1.03450385e-18 1.13671453e-06 -1.96648027e-19)
(-1.34272074e-18 1.47531338e-06 -2.55210438e-19)
(-1.72211634e-18 1.89206442e-06 -3.27278583e-19)
(-2.18939992e-18 2.40529782e-06 -4.16013242e-19)
(-2.76292763e-18 3.03514337e-06 -5.24879848e-19)
(-3.46542282e-18 3.80651653e-06 -6.58161336e-19)
(-4.32003188e-18 4.74478736e-06 -8.20204073e-19)
(-5.35267633e-18 5.8783642e-06 -1.0158576e-18)
(-6.58972641e-18 7.23614313e-06 -1.25002511e-18)
(-8.05760627e-18 8.847079e-06 -1.5275791e-18)
(-9.78043057e-18 1.07375976e-05 -1.85290414e-18)
(-1.17777325e-17 1.2929108e-05 -2.22945902e-18)
(-1.40615365e-17 1.5434795e-05 -2.65922029e-18)
(-1.66326771e-17 1.82555824e-05 -3.14199425e-18)
(-1.94768333e-17 2.13757811e-05 -3.67469139e-18)
(-2.25605885e-17 2.47587626e-05 -4.25062871e-18)
(-2.58281829e-17 2.83433898e-05 -4.85898859e-18)
(-2.91997276e-17 3.20420524e-05 -5.48457665e-18)
(-3.25717342e-17 3.57412409e-05 -6.10802602e-18)
(-3.58207488e-17 3.9305532e-05 -6.70657083e-18)
(-3.88105652e-17 4.25855e-05 -7.25544074e-18)
(-4.14028188e-17 4.5429342e-05 -7.72980314e-18)
(-4.34698335e-17 4.76969752e-05 -8.10702379e-18)
(-8.85107894e-20 9.72643352e-08 -1.68280686e-20)
(-2.67239193e-19 2.93666705e-07 -5.08079388e-20)
(-4.56020205e-19 5.01109367e-07 -8.66965453e-20)
(-6.68075073e-19 7.34113911e-07 -1.27005172e-19)
(-9.17109781e-19 1.00773195e-06 -1.74335907e-19)
(-1.21787982e-18 1.33816343e-06 -2.31488066e-19)
(-1.58699156e-18 1.74363497e-06 -3.01609131e-19)
(-2.04371452e-18 2.24528975e-06 -3.88347037e-19)
(-2.60872416e-18 2.86580463e-06 -4.95608414e-19)
(-3.3086037e-18 3.63433194e-06 -6.28408799e-19)
(-4.17097672e-18 4.58115305e-06 -7.91942826e-19)
(-5.22573317e-18 5.7390267e-06 -9.91807891e-19)
(-6.50962336e-18 7.14823368e-06 -1.23486405e-18)
(-8.05816673e-18 8.84770048e-06 -1.52768498e-18)
(-9.90946184e-18 1.08791873e-05 -1.87726211e-18)
(-1.20988595e-17 1.32814502e-05 -2.28997734e-18)
(-1.46567907e-17 1.60878646e-05 -2.77117458e-18)
(-1.76050403e-17 1.93223395e-05 -3.32444497e-18)
(-2.09513077e-17 2.2993351e-05 -3.95060632e-18)
(-2.46834766e-17 2.70876498e-05 -4.6466561e-18)
(-2.87634633e-17 3.15635052e-05 -5.40468812e-18)
(-3.31217991e-17 3.63447516e-05 -6.21100016e-18)
(-3.76540375e-17 4.13168386e-05 -7.04559731e-18)
(-4.222031e-17 4.63263384e-05 -7.88232069e-18)
(-4.66494389e-17 5.1185456e-05 -8.6898171e-18)
(-5.07486835e-17 5.5682724e-05 -9.43347478e-18)
(-5.43191889e-17 5.95999569e-05 -1.00782531e-17)
(-5.71756071e-17 6.27337819e-05 -1.05920673e-17)
(-1.02489539e-19 1.12623517e-07 -1.94850739e-20)
(-3.09560531e-19 3.40166768e-07 -5.88518637e-20)
(-5.28801028e-19 5.81074228e-07 -1.00528826e-19)
(-7.76128629e-19 8.5282783e-07 -1.47538825e-19)
(-1.06812263e-18 1.17363291e-06 -2.03028569e-19)
(-1.42289679e-18 1.56337416e-06 -2.70433115e-19)
(-1.86097021e-18 2.04456959e-06 -3.53639317e-19)
(-2.4060505e-18 2.64322781e-06 -4.57131506e-19)
(-3.08551532e-18 3.389374e-06 -5.86078218e-19)
(-3.93181273e-18 4.31858571e-06 -7.46591063e-19)
(-4.97957299e-18 5.46882157e-06 -9.45166766e-19)
(-6.27350384e-18 6.88908981e-06 -1.19016907e-18)
(-7.85856599e-18 8.62866767e-06 -1.48994874e-18)
(-9.78172199e-18 1.07390318e-05 -1.85314758e-18)
(-1.20996263e-17 1.32823028e-05 -2.29012121e-18)
(-1.48624344e-17 1.63134897e-05 -2.80983979e-18)
(-1.81160463e-17 1.98829575e-05 -3.42027562e-18)
(-2.18975738e-17 2.40314554e-05 -4.12751729e-18)
(-2.62265425e-17 2.87804604e-05 -4.93410875e-18)
(-3.10972915e-17 3.41238289e-05 -5.83765964e-18)
(-3.6469317e-17 4.00171902e-05 -6.8291498e-18)
(-4.22585413e-17 4.63683548e-05 -7.89150978e-18)
(-4.83306668e-17 5.30300146e-05 -8.99870743e-18)
(-5.4498595e-17 5.97969079e-05 -1.01156874e-17)
(-6.05263188e-17 6.64100917e-05 -1.11995302e-17)
(-6.61415902e-17 7.25708456e-05 -1.22021036e-17)
(-7.10582101e-17 7.79651353e-05 -1.30741706e-17)
(-7.50060974e-17 8.22966087e-05 -1.37704603e-17)
(-1.17726628e-19 1.29364957e-07 -2.23810406e-20)
(-3.55720418e-19 3.90883228e-07 -6.76246568e-20)
(-6.0830394e-19 6.68422298e-07 -1.15637223e-19)
(-8.94463109e-19 9.82832463e-07 -1.70023549e-19)
(-1.23409285e-18 1.35595782e-06 -2.3455847e-19)
(-1.64913661e-18 1.81188437e-06 -3.13401429e-19)
(-2.16467589e-18 2.37813333e-06 -4.1130047e-19)
(-2.80996099e-18 3.08678953e-06 -5.33783358e-19)
(-3.61935718e-18 3.9755373e-06 -6.87330066e-19)
(-4.63331488e-18 5.08872375e-06 -8.79546051e-19)
(-5.89868592e-18 6.47770601e-06 -1.11920603e-18)
(-7.47066081e-18 8.20298168e-06 -1.41659778e-18)
(-9.40656713e-18 1.03273904e-05 -1.78231564e-18)
(-1.17793263e-17 1.29308899e-05 -2.2297578e-18)
(-1.46591685e-17 1.60905018e-05 -2.77161945e-18)
(-1.81189021e-17 1.98861086e-05 -3.42080967e-18)
(-2.22256333e-17 2.43913684e-05 -4.18882029e-18)
(-2.70409057e-17 2.96738666e-05 -5.08567557e-18)
(-3.26029248e-17 3.5775603e-05 -6.11655998e-18)
(-3.89198772e-17 4.27056464e-05 -7.280595e-18)
(-4.59536738e-17 5.04222812e-05 -8.56797062e-18)
(-5.36066356e-17 5.88183869e-05 -9.95781704e-18)
(-6.17099343e-17 6.77087502e-05 -1.14166468e-17)
(-7.00168169e-17 7.6822633e-05 -1.28979168e-17)
(-7.82045184e-17 8.58058794e-05 -1.43433074e-17)
(-8.58896258e-17 9.42377819e-05 -1.5686296e-17)
(-9.26595952e-17 0.00010166567 -1.68580881e-17)
(-9.81188754e-17 0.000107655523 -1.77952157e-17)
(-1.34109262e-19 1.47364668e-07 -2.54944771e-20)
(-4.05379808e-19 4.45443379e-07 -7.70617018e-20)
(-6.93963163e-19 7.62531544e-07 -1.31913845e-19)
(-1.02228143e-18 1.12325128e-06 -1.94307168e-19)
(-1.41397253e-18 1.55355395e-06 -2.68725186e-19)
(-1.89533189e-18 2.0822992e-06 -3.60149796e-19)
(-2.49670438e-18 2.74277944e-06 -4.74321358e-19)
(-3.25385017e-18 3.57421551e-06 -6.17991219e-19)
(-4.20928267e-18 4.62322242e-06 -7.99164984e-19)
(-5.41355719e-18 5.94522258e-06 -1.02733045e-18)
(-6.92634827e-18 7.60563024e-06 -1.31363678e-18)
(-8.81742537e-18 9.68092869e-06 -1.67104215e-18)
(-1.11660972e-17 1.22580708e-05 -2.11415473e-18)
(-1.40628485e-17 1.54362892e-05 -2.6594672e-18)
(-1.76108506e-17 1.93287676e-05 -3.32553057e-18)
(-2.19076726e-17 2.40425781e-05 -4.12940344e-18)
(-2.70451748e-17 2.96785765e-05 -5.08646895e-18)
(-3.31275494e-17 3.63511709e-05 -6.21366113e-18)
(-4.02178621e-17 4.41296625e-05 -7.51934647e-18)
(-4.83516612e-17 5.30531484e-05 -9.00583684e-18)
(-5.75018968e-17 6.3092016e-05 -1.0663086e-17)
(-6.75618828e-17 7.41292389e-05 -1.24660772e-17)
(-7.83260054e-17 8.59392133e-05 -1.43722847e-17)
(-8.94753677e-17 9.81720176e-05 -1.63205788e-17)
(-1.00573767e-16 0.000110349012 -1.82324171e-17)
(-1.11083884e-16 0.000121880616 -2.00165718e-17)
(-1.20410173e-16 0.000132113367 -2.15776421e-17)
(-1.27969213e-16 0.000140407121 -2.28274225e-17)
(-1.51460402e-19 1.66428098e-07 -2.87916868e-20)
(-4.58005302e-19 5.03261042e-07 -8.70614604e-20)
(-7.84873235e-19 8.62406868e-07 -1.49186271e-19)
(-1.15826818e-18 1.27263854e-06 -2.20139064e-19)
(-1.6059789e-18 1.76446174e-06 -3.05188739e-19)
(-2.15917359e-18 2.37208034e-06 -4.10237209e-19)
(-2.85416293e-18 3.13532748e-06 -5.42148104e-19)
(-3.73417998e-18 4.10161525e-06 -7.09074858e-19)
(-4.85119142e-18 5.32791985e-06 -9.20788756e-19)
(-6.26771271e-18 6.88277378e-06 -1.18899854e-18)
(-8.05853251e-18 8.84816263e-06 -1.52763903e-18)
(-1.0312223e-17 1.13211924e-05 -1.95309927e-18)
(-1.31320923e-17 1.44151491e-05 -2.48431661e-18)
(-1.66369654e-17 1.82603731e-05 -3.14280052e-18)
(-2.09605604e-17 2.30035872e-05 -3.95234128e-18)
(-2.62321768e-17 2.87867192e-05 -4.93516545e-18)
(-3.2612421e-17 3.57860822e-05 -6.11831111e-18)
(-4.02304436e-17 4.4143499e-05 -7.52165958e-18)
(-4.91860385e-17 5.39685836e-05 -9.15798258e-18)
(-5.95733912e-17 6.53647577e-05 -1.103716e-17)
(-7.13882633e-17 7.83274111e-05 -1.31492298e-17)
(-8.45258484e-17 9.27415446e-05 -1.54647803e-17)
(-9.87471979e-17 0.000108344946 -1.79304865e-17)
(-1.13652639e-16 0.000124699046 -2.04670697e-17)
(-1.28663177e-16 0.000141168525 -2.29698455e-17)
(-1.43032082e-16 0.000156934037 -2.53149019e-17)
(-1.55898886e-16 0.000171051463 -2.73712364e-17)
(-1.66394502e-16 0.000182567234 -2.90177023e-17)
(-1.69535637e-19 1.86286708e-07 -3.22261808e-20)
(-5.12858202e-19 5.63524592e-07 -9.74834173e-20)
(-8.79768256e-19 9.66657397e-07 -1.67213667e-19)
(-1.30055423e-18 1.42894064e-06 -2.47163542e-19)
(-1.80752164e-18 1.98583523e-06 -3.43455965e-19)
(-2.43719305e-18 2.67741687e-06 -4.63002775e-19)
(-3.23250802e-18 3.55078583e-06 -6.13913948e-19)
(-4.24509963e-18 4.66256142e-06 -8.05915896e-19)
(-5.53768568e-18 6.08150397e-06 -1.05078269e-18)
(-7.18656278e-18 7.8912538e-06 -1.36277303e-18)
(-9.28412463e-18 1.01931023e-05 -1.75905072e-18)
(-1.19412411e-17 1.31086168e-05 -2.26004712e-18)
(-1.52891966e-17 1.67817865e-05 -2.88969437e-18)
(-1.9480785e-17 2.13802433e-05 -3.67543486e-18)
(-2.46894343e-17 2.70943145e-05 -4.64777383e-18)
(-3.11043966e-17 3.41317438e-05 -5.83898702e-18)
(-3.89323017e-17 4.27193775e-05 -7.28290025e-18)
(-4.83548132e-17 5.30566778e-05 -9.00643377e-18)
(-5.95760417e-17 6.53677023e-05 -1.10376121e-17)
(-7.27199687e-17 7.978854e-05 -1.33863915e-17)
(-8.78446413e-17 9.63828797e-05 -1.60469008e-17)
(-1.04870783e-16 0.000115063694 -1.89855447e-17)
(-1.23540333e-16 0.000135547778 -2.21360475e-17)
(-1.43377313e-16 0.000157312829 -2.53971869e-17)
(-1.63634582e-16 0.000179539044 -2.86309925e-17)
(-1.83289576e-16 0.000201104449 -3.16710771e-17)
(-2.01100748e-16 0.000220646815 -3.43398374e-17)
(-2.15755834e-16 0.000236726329 -3.64735203e-17)
(-1.88023506e-19 2.06598332e-07 -3.57387465e-20)
(-5.68994815e-19 6.25197326e-07 -1.08148163e-19)
(-9.77020224e-19 1.07349474e-06 -1.85686518e-19)
(-1.44670854e-18 1.58948715e-06 -2.74918378e-19)
(-2.01517793e-18 2.21391485e-06 -3.82875975e-19)
(-2.72471013e-18 2.99316872e-06 -5.17556255e-19)
(-3.62544931e-18 3.98224688e-06 -6.88421759e-19)
(-4.77825795e-18 5.24788473e-06 -9.06923581e-19)
(-6.25780039e-18 6.87193781e-06 -1.18705494e-18)
(-8.1558714e-18 8.95503864e-06 -1.54593115e-18)
(-1.05849127e-17 1.16204673e-05 -2.00437367e-18)
(-1.36815544e-17 1.50180563e-05 -2.58745056e-18)
(-1.76098601e-17 1.93277752e-05 -3.32488843e-18)
(-2.25637348e-17 2.47623922e-05 -4.25122097e-18)
(-2.87675834e-17 3.15682054e-05 -5.40546166e-18)
(-3.64741026e-17 4.00226094e-05 -6.83004541e-18)
(-4.59587805e-17 5.04280285e-05 -8.56892387e-18)
(-5.75029473e-17 6.30932789e-05 -1.06632922e-17)
(-7.13830689e-17 7.8321783e-05 -1.31483021e-17)
(-8.7848337e-17 9.63869672e-05 -1.60474394e-17)
(-1.07017407e-16 0.000117418974 -1.93537338e-17)
(-1.28889188e-16 0.000141416534 -2.30315237e-17)
(-1.53214142e-16 0.000168105779 -2.69975658e-17)
(-1.79479908e-16 0.000196924498 -3.11256871e-17)
(-2.06765435e-16 0.000226862089 -3.52357622e-17)
(-2.33708236e-16 0.000256423627 -3.91072473e-17)
(-2.58530528e-16 0.000283658539 -4.25033207e-17)
(-2.79217099e-16 0.000306355743 -4.52074348e-17)
(-2.06550315e-19 2.26952484e-07 -3.92583705e-20)
(-6.25280609e-19 6.87033041e-07 -1.18840111e-19)
(-1.07466173e-18 1.18075795e-06 -2.04230997e-19)
(-1.59376759e-18 1.75102334e-06 -3.02840525e-19)
(-2.22472509e-18 2.44406353e-06 -4.2264657e-19)
(-3.01586334e-18 3.31290009e-06 -5.72784217e-19)
(-4.02496556e-18 4.42090482e-06 -7.64147869e-19)
(-5.3227802e-18 5.845649e-06 -1.01003197e-18)
(-6.99690546e-18 7.68316646e-06 -1.3268251e-18)