/*--------------------------------*- C++ -*----------------------------------*\
| =========                 |                                                 |
| \\      /  F ield         | foam-extend: Open Source CFD                    |
|  \\    /   O peration     | Version:     4.1                                |
|   \\  /    A nd           | Web:         http://www.foam-extend.org         |
|    \\/     M anipulation  |                                                 |
\*---------------------------------------------------------------------------*/
FoamFile
{
    version     2.0;
    format      ascii;
    class       surfaceScalarField;
    location    "0.4";
    object      meshPhi;
}
// * * * * * * * * * * * * * * * * * * * * * * * * * * * * * * * * * * * * * //

dimensions      [0 3 -1 0 0 0 0];

internalField   nonuniform List<scalar> 
102656
(
0
2.77989252e-13
-5.78241286e-21
-1.29917076e-28
8.3967996e-13
5.78241554e-21
0
1.42334316e-12
-5.7824183e-21
4.62593371e-20
2.05234659e-12
-1.15648425e-20
-2.31296744e-20
2.75221124e-12
5.78242425e-21
0
3.54838288e-12
0
0
4.46646669e-12
-5.78243317e-21
4.62594079e-20
5.53226799e-12
5.78243705e-21
0
6.77160698e-12
-5.78244354e-21
8.30990574e-27
8.20987851e-12
0
-4.9778652e-27
9.87133346e-12
-5.78245817e-21
4.62595342e-20
1.17780685e-11
-5.78246717e-21
0
1.39487261e-11
5.7824758e-21
0
1.63969307e-11
1.1564976e-20
0
1.91295136e-11
-2.21229442e-27
0
2.21446185e-11
-5.78251353e-21
0
2.54298162e-11
-2.94091328e-27
0
2.89603942e-11
-5.78254825e-21
9.25198921e-20
3.26980216e-11
5.78256211e-21
-9.251997e-20
3.65900043e-11
-1.15651685e-20
-9.25201138e-20
4.05693416e-11
0
9.25203854e-20
4.45557639e-11
1.15652385e-20
4.66069761e-26
4.84578654e-11
-5.60406645e-27
-4.99386676e-26
5.2176351e-11
5.78265177e-21
-1.85041493e-19
5.56082996e-11
0
0
5.86522184e-11
0
3.70083643e-19
6.12135522e-11
5.78269337e-21
6.32102446e-11
-5.78270988e-21
0
-1.15648258e-20
5.61776262e-13
-5.78241289e-21
-1.32591932e-28
1.69672229e-12
-5.78241563e-21
-1.15648315e-20
2.87593014e-12
0
2.31296687e-20
4.14706121e-12
5.78242146e-21
-4.62593514e-20
5.56224624e-12
-6.49951164e-28
2.31296847e-20
7.17348444e-12
5.78242826e-21
-4.62593884e-20
9.0331647e-12
1.15648657e-20
-4.62594107e-20
1.11941844e-11
-6.5479062e-28
4.62594366e-20
1.37096011e-11
-5.78244352e-21
4.62594667e-20
1.66317589e-11
5.78245035e-21
-4.62594963e-20
2.00108391e-11
0
-9.25190765e-20
2.38928046e-11
5.78246736e-21
1.44018649e-26
2.83167388e-11
1.15649555e-20
-9.25192749e-20
3.33116247e-11
-5.78249141e-21
-9.25193685e-20
3.88926716e-11
0
0
4.50573695e-11
0
-9.25196478e-20
5.17815362e-11
0
-9.25197627e-20
5.90156988e-11
1.15650999e-20
-2.77559767e-19
6.66822259e-11
-7.86042626e-27
9.25201018e-20
7.46736625e-11
5.7825869e-21
0
8.28527193e-11
0
1.85040795e-19
9.10543017e-11
0
-9.25205249e-20
9.90898345e-11
5.78263881e-21
-1.85041384e-19
1.06753937e-10
0
1.85041698e-19
1.13833253e-10
-1.1565366e-20
0
1.20116975e-10
-5.78270165e-21
0
1.25408334e-10
0
1.29536176e-10
-5.78271692e-21
1.85042247e-19
-5.782413e-21
8.61915973e-13
-5.782413e-21
-1.40236641e-28
2.60316888e-12
0
1.15648317e-20
4.4127124e-12
0
-2.31296706e-20
6.36493007e-12
-2.56492611e-28
7.82577952e-28
8.5413603e-12
1.15648509e-20
-4.62593731e-20
1.10234824e-11
5.78242975e-21
0
1.38936304e-11
-5.78243452e-21
0
1.72352667e-11
5.78243939e-21
4.62594469e-20
2.11325164e-11
0
-4.62594751e-20
2.56688647e-11
5.78245318e-21
4.62595122e-20
3.09249335e-11
-1.26219572e-27
4.62595549e-20
3.69752769e-11
0
0
4.38841842e-11
-5.78248505e-21
0
5.1700549e-11
-5.78249836e-21
-9.25194625e-20
6.04519582e-11
1.15650242e-20
0
7.0138277e-11
-5.78252704e-21
0
8.07251401e-11
-5.78254817e-21
3.26464035e-26
9.21379003e-11
-5.78256789e-21
9.25200903e-20
1.04256706e-10
0
9.25203111e-20
1.16913462e-10
-1.1565217e-20
-1.85040814e-19
1.2989143e-10
1.15652617e-20
1.8504127e-19
1.42928151e-10
-5.99911894e-27
2.77562382e-19
1.55722131e-10
-5.78267886e-21
1.850419e-19
1.67943458e-10
-5.78270037e-21
-1.85042138e-19
1.79248043e-10
-5.78272031e-21
-3.70084922e-19
1.89294749e-10
1.15654602e-20
0
1.97764201e-10
-8.36782808e-27
2.04377759e-10
-5.78276481e-21
-1.85042902e-19
5.7824131e-21
1.19120489e-12
-5.78241318e-21
1.15648291e-20
3.59795548e-12
5.78241616e-21
1.15648326e-20
6.10069067e-12
-5.78241935e-21
2.31296724e-20
8.80478309e-12
5.7824231e-21
2.31296816e-20
1.18260451e-11
5.78242632e-21
-6.93890721e-20
1.52805878e-11
5.78243118e-21
4.62594033e-20
1.92863023e-11
5.78243641e-21
-4.62594333e-20
2.39634181e-11
-5.78244255e-21
4.62594654e-20
2.94339954e-11
5.7824498e-21
-4.62594928e-20
3.58202011e-11
-1.17398411e-27
-1.85038182e-19
4.32412323e-11
-1.15649394e-20
7.48691266e-27
5.18087794e-11
5.78247986e-21
0
6.16209837e-11
-2.0512295e-27
0
7.27549413e-11
-5.78251094e-21
9.2519572e-20
8.52579468e-11
-2.86876871e-27
-9.25197924e-20
9.9137848e-11
-3.35374911e-27
-3.33519266e-26
1.14353096e-10
0
1.85040288e-19
1.30803294e-10
0
-9.25203108e-20
1.48321256e-10
-1.73478484e-20
4.87215347e-26
1.66667739e-10
5.75399423e-27
0
1.85530048e-10
5.78266775e-21
9.25210238e-20
2.04525616e-10
1.15653975e-20
9.25212436e-20
2.23211364e-10
0
1.85042833e-19
2.41099162e-10
5.78275688e-21
-1.85043284e-19
2.57677035e-10
-1.15655545e-20
1.85043457e-19
2.72435023e-10
5.7827944e-21
-1.85043887e-19
2.84893839e-10
5.78281277e-21
2.94633917e-10
-1.04379651e-26
1.85043749e-19
5.78241329e-21
1.56233297e-12
5.78241329e-21
-1.73613605e-28
4.71969429e-12
0
1.15648338e-20
8.00635906e-12
5.78242058e-21
2.31296759e-20
1.15648924e-11
5.78242461e-21
2.31296874e-20
1.55524407e-11
-5.78242917e-21
0
2.01272791e-11
0
-4.62594193e-20
2.54511228e-11
5.78244067e-21
4.62594506e-20
3.1690173e-11
-1.15648952e-20
4.89739144e-27
3.90146908e-11
-1.10799048e-27
4.62595374e-20
4.75968783e-11
5.78246715e-21
4.62595902e-20
5.76068517e-11
-1.66135848e-27
-4.62596431e-20
6.9206519e-11
0
0
8.25412474e-11
-5.78251272e-21
-9.25195848e-20
9.77293355e-11
-5.78252943e-21
0
1.148495e-10
1.15650956e-20
0
1.33926844e-10
5.78257576e-21
-9.2520191e-20
1.54918088e-10
-4.69126957e-27
9.25204805e-20
1.77697201e-10
-5.42319745e-27
9.25207471e-20
2.02042885e-10
-5.78266514e-21
5.98339215e-26
2.2762966e-10
-5.78269932e-21
0
2.54024406e-10
1.15654618e-20
0
2.80690137e-10
-5.7827799e-21
8.10105328e-26
3.06998371e-10
5.78279739e-21
-9.25220755e-20
3.32250772e-10
0
0
3.55709715e-10
0
0
3.76636235e-10
-5.78289142e-21
-1.85045615e-19
3.94332609e-10
0
4.08185835e-10
0
3.70091546e-19
-5.7824136e-21
1.98804199e-12
-5.7824136e-21
1.15648311e-20
6.00718334e-12
0
1.15648357e-20
1.01966587e-11
-5.78242167e-21
-8.5631275e-28
1.47445273e-11
-5.78242659e-21
2.27149299e-27
1.98587306e-11
0
2.31297061e-20
2.5749884e-11
5.78243747e-21
0
3.26347948e-11
-8.30778957e-28
0
4.07382965e-11
-1.15649075e-20
4.62595285e-20
5.02931093e-11
1.15649283e-20
0
6.1537397e-11
-5.78247736e-21
-4.62596304e-20
7.47096982e-11
-1.97791395e-27
4.6259724e-20
9.0040914e-11
-1.15650174e-20
0
1.07743112e-10
0
-9.25197999e-20
1.2799507e-10
-3.50017862e-27
-9.25200643e-20
1.50924737e-10
-5.78258183e-21
-4.27000926e-26
1.76589175e-10
5.78261293e-21
9.25205713e-20
2.04952974e-10
5.78264194e-21
-9.25208847e-20
2.35866684e-10
1.15653588e-20
0
2.69047349e-10
0
9.25216548e-20
3.04063695e-10
0
9.25220343e-20
3.40328819e-10
5.782809e-21
9.39050644e-26
3.77103184e-10
-1.11499984e-26
-9.25226941e-20
4.13510268e-10
-1.23179125e-26
1.85046206e-19
4.48566154e-10
5.78294724e-21
0
4.812229e-10
5.78300413e-21
0
5.10423586e-10
-5.78304321e-21
0
5.35165018e-10
-5.78307648e-21
5.54562397e-10
1.15661884e-20
-1.85048131e-19
0
2.48119347e-12
0
2.31296648e-20
7.49964012e-12
5.78241846e-21
3.57005096e-28
1.27394599e-11
-1.15648472e-20
-2.31296881e-20
1.84448076e-11
-5.78242905e-21
0
2.48865569e-11
0
6.9389148e-20
3.23408412e-11
-7.62232546e-28
-4.62594716e-20
4.10942963e-11
5.78245053e-21
4.6259518e-20
5.14471307e-11
0
6.89378169e-27
6.37135975e-11
-1.55205572e-27
0
7.82193811e-11
-1.92924197e-27
-1.38779143e-19
9.52954391e-11
0
0
1.15267778e-10
-1.15650583e-20
9.25198248e-20
1.38442709e-10
0
0
1.65087311e-10
-1.15651733e-20
-1.85040783e-19
1.95405206e-10
0
0
2.29508206e-10
-5.78266747e-21
9.25210702e-20
2.67385099e-10
5.78269904e-21
-9.25214789e-20
3.08869598e-10
0
8.3801734e-26
3.53610347e-10
-5.78281076e-21
9.56528957e-26
4.01046712e-10
-5.78286941e-21
-9.25229945e-20
4.50394647e-10
5.78291846e-21
-9.25233878e-20
5.00647088e-10
0
1.85048035e-19
5.50592768e-10
0
-2.77573229e-19
5.98855951e-10
5.78310378e-21
-1.85049604e-19
6.43957369e-10
0
1.85050379e-19
6.8439366e-10
5.78321288e-21
0
7.18729467e-10
-5.78327831e-21
7.45693515e-10
0
1.85051495e-19
-5.78241423e-21
3.05471879e-12
-5.78241423e-21
0
9.23659822e-12
-2.00876126e-28
1.15648402e-20
1.57034885e-11
0
-2.31296952e-20
2.27687451e-11
5.782432e-21
1.55958555e-27
3.0781298e-11
1.15648775e-20
-2.31297271e-20
4.00994255e-11
0
0
5.10983676e-11
-5.7824588e-21
0
6.41753098e-11
0
0
7.97509853e-11
-5.78248726e-21
4.62597125e-20
9.82671583e-11
-2.31848998e-27
0
1.20179436e-10
1.15650523e-20
-4.62599313e-20
1.45944563e-10
5.7825528e-21
-3.81994067e-26
1.76001358e-10
-5.78258883e-21
-2.7756133e-19
2.10744723e-10
-5.78262179e-21
0
2.50492565e-10
-6.37075568e-27
-9.25212939e-20
2.95446163e-10
-5.78271519e-21
9.25217875e-20
3.45645441e-10
-1.1565553e-20
0
4.00921746e-10
-5.78284613e-21
1.8504587e-19
4.60852078e-10
0
1.85047033e-19
5.24720097e-10
5.78298116e-21
9.25243905e-20
5.91490352e-10
-5.78307774e-21
9.25249423e-20
6.59802701e-10
-1.15663077e-20
1.72553457e-25
7.27993368e-10
2.05160657e-26
9.25262943e-20
7.94147277e-10
5.78328854e-21
0
8.56182982e-10
-2.45435169e-26
-1.85054908e-19
9.11966948e-10
-2.63184482e-26
0
9.59448777e-10
-2.78387625e-26
9.96804204e-10
5.78359737e-21
1.85056479e-19
-5.78241473e-21
3.7214079e-12
5.78241466e-21
-3.13196421e-28
1.1257378e-11
-5.78242113e-21
1.15648425e-20
1.91576217e-11
-1.15648554e-20
0
2.78203627e-11
-5.8421063e-28
1.83101691e-27
3.76910332e-11
-5.782445e-21
-2.3129744e-20
4.92306964e-11
0
4.62595439e-20
6.29266291e-11
5.78246604e-21
-4.62596124e-20
7.93003577e-11
5.78248121e-21
1.38779089e-19
9.89112194e-11
1.15649996e-20
-4.62597737e-20
1.22354295e-10
-5.78252525e-21
-1.38779721e-19
1.50252474e-10
0
9.25201234e-20
1.83241165e-10
5.78258329e-21
9.25204508e-20
2.21944161e-10
-5.31320384e-27
9.25209169e-20
2.66939578e-10
0
-9.25213372e-20
3.18715279e-10
0
1.85043858e-19
3.7761405e-10
-9.50257089e-27
-9.25226119e-20
4.43770136e-10
-5.78288616e-21
9.25233301e-20
5.17040301e-10
-5.78295979e-21
9.25241205e-20
5.96934652e-10
0
3.12947753e-25
6.82554704e-10
0
0
7.72548243e-10
0
0
8.65091822e-10
-5.78338095e-21
2.7758321e-19
9.57911461e-10
-5.78349728e-21
2.77585182e-19
1.0483499e-09
-5.78358258e-21
3.7011793e-19
1.13348391e-09
-5.78372108e-21
1.85060458e-19
1.2102883e-09
-5.78382037e-21
0
1.27583453e-09
0
1.3275041e-09
-3.82448584e-26
1.85062622e-19
5.78241523e-21
4.49341818e-12
0
1.15648376e-20
1.35999689e-11
5.78242237e-21
-1.15648462e-20
2.31695087e-11
-5.78243052e-21
-2.31297129e-20
3.37028223e-11
0
2.31297359e-20
4.57639961e-11
-5.78244969e-21
-6.93892777e-20
5.99424165e-11
5.78245966e-21
4.62595894e-20
7.68659644e-11
0
4.6259663e-20
9.72145733e-11
-2.07174736e-27
-4.62597509e-20
1.21727132e-10
-5.78251926e-21
9.25197999e-20
1.51199905e-10
0
-4.62600345e-20
1.86478659e-10
-4.18949416e-27
-9.25204545e-20
2.28441112e-10
-5.78262492e-21
9.25208666e-20
2.77967071e-10
-6.47895051e-27
9.25214547e-20
3.35894604e-10
-5.78273708e-21
-9.25220792e-20
4.02960761e-10
-5.78279954e-21
-9.25228047e-20
4.79726648e-10
5.78288185e-21
9.25235125e-20
5.66488315e-10
-1.41921403e-26
9.25245744e-20
6.63177161e-10
1.15661862e-20
0
7.69256434e-10
5.78320532e-21
-1.99884204e-25
8.83624134e-10
5.78333777e-21
9.25279515e-20
1.00453632e-09
0
1.85058144e-19
1.12956747e-09
0
0
1.25562506e-09
-3.44300514e-26
-9.25316936e-20
1.37903301e-09
-3.82429168e-26
-1.85064993e-19
1.49569199e-09
0
0
1.6013139e-09
-5.78425824e-21
0
1.69171393e-09
0
1.76312988e-09
5.78441853e-21
1.85069906e-19
5.78241577e-21
5.38052367e-12
5.78241567e-21
-1.15648403e-20
1.62982764e-11
-5.78242432e-21
3.46945488e-20
2.78036577e-11
5.78243292e-21
2.31297198e-20
4.05156232e-11
0
-4.62594937e-20
5.51442064e-11
-5.78245586e-21
-4.62595577e-20
7.24397257e-11
-5.78247057e-21
-9.25192653e-20
9.3203865e-11
-1.88944934e-27
4.62597299e-20
1.1831652e-10
-5.78251117e-21
-4.62598507e-20
1.48748342e-10
-5.78253911e-21
1.77702219e-26
1.85557308e-10
-3.97337288e-27
0
2.29883434e-10
5.78261143e-21
-2.80252904e-26
2.82930222e-10
0
-9.25213609e-20
3.45928472e-10
5.78272454e-21
0
4.20081208e-10
0
0
5.06485994e-10
-1.19725101e-26
-9.25238205e-20
6.06033857e-10
0
1.85049478e-19
7.19285676e-10
-5.78313304e-21
-9.25259301e-20
8.46330044e-10
5.78325523e-21
9.25276975e-20
9.86630103e-10
5.78341291e-21
-9.25287223e-20
1.13887326e-09
-1.73507918e-20
1.85060577e-19
1.30084397e-09
-5.78381087e-21
-1.85063854e-19
1.46934488e-09
-5.78401619e-21
9.25335908e-20
1.64019382e-09
5.78418327e-21
9.25352236e-20
1.80832198e-09
-5.78443896e-21
-1.85073522e-19
1.96798961e-09
5.78453285e-21
1.85077254e-19
2.11311967e-09
5.78476949e-21
-1.85079605e-19
2.23772745e-09
0
2.33640028e-09
0
-1.85080291e-19
-5.78241639e-21
6.39906512e-12
0
1.15648423e-20
1.93916258e-11
-5.78242583e-21
1.15648537e-20
3.31127816e-11
1.73473087e-20
-4.62594638e-20
4.83369352e-11
5.78244759e-21
-2.3129761e-20
6.5959083e-11
0
2.31298021e-20
8.69175578e-11
-5.78247824e-21
-4.62596892e-20
1.12218799e-10
0
4.62598052e-20
1.42997242e-10
-2.85428186e-27
0
1.80524181e-10
-1.15651231e-20
-4.62601317e-20
2.26193521e-10
-5.78260339e-21
-4.62603562e-20
2.81529384e-10
5.78264939e-21
0
3.48169287e-10
0
9.25219397e-20
4.27820203e-10
-1.15655964e-20
9.25227554e-20
5.22191992e-10
0
9.2523731e-20
6.32897017e-10
-5.78300843e-21
1.85049926e-19
7.61315801e-10
-1.15662896e-20
-9.2526419e-20
9.08427817e-10
0
9.25282302e-20
1.07461176e-09
-1.15669528e-20
-9.25295085e-20
1.25942161e-09
-3.15478557e-26
3.22503038e-25
1.46135694e-09
5.78389722e-21
0
1.67765615e-09
0
2.77607982e-19
1.9041505e-09
0
-9.25379528e-20
2.13522226e-09
0
-1.85080885e-19
2.36390981e-09
-1.15700066e-20
-1.85084547e-19
2.58219162e-09
5.78524121e-21
-1.85088324e-19
2.78145782e-09
-5.7855679e-21
1.8509285e-19
2.953142e-09
0
3.08944455e-09
-8.70882389e-26
0
5.78241691e-21
7.5560821e-12
0
0
2.29020876e-11
-4.05978714e-28
-1.70067907e-27
3.91426318e-11
-5.78244004e-21
0
5.72465143e-11
1.15649062e-20
-4.62595585e-20
7.8320102e-11
-1.15649384e-20
2.31298209e-20
1.03521651e-10
-1.92023402e-27
0
1.34128418e-10
5.78251245e-21
-1.49643343e-26
1.71605022e-10
0
1.93178404e-26
2.17578546e-10
0
2.47809561e-26
2.73858319e-10
0
-3.16072306e-26
3.42477339e-10
5.78269225e-21
-4.62608885e-20
4.25647045e-10
-5.78277735e-21
9.25226073e-20
5.257122e-10
-5.78288508e-21
0
6.45078903e-10
-5.78297759e-21
0
7.86085017e-10
0
0
9.50825025e-10
5.78328455e-21
9.25280098e-20
1.14092112e-09
0
-9.25299938e-20
1.35724908e-09
5.78371364e-21
3.43093011e-25
1.59961483e-09
5.78397882e-21
-9.25347749e-20
1.86640779e-09
5.78427764e-21
9.25384791e-20
2.15427112e-09
5.78460735e-21
-9.25410054e-20
2.4578439e-09
-6.40336624e-26
9.25447281e-20
2.76964292e-09
1.1570742e-20
-7.00429995e-25
3.08015435e-09
-5.78587694e-21
0
3.37819551e-09
-5.78617074e-21
0
3.65157426e-09
-1.15729408e-20
1.85108259e-19
3.88801711e-09
5.78671837e-21
4.07626438e-09
1.15740294e-20
0
0
8.85099827e-12
-5.7824177e-21
1.15648481e-20
2.68392368e-11
-5.78243017e-21
1.15648613e-20
4.59259754e-11
5.78244281e-21
-2.31297579e-20
6.72957109e-11
-5.78245785e-21
2.31298024e-20
9.22968344e-11
0
2.31298449e-20
1.22370169e-10
-2.17979778e-27
0
1.59135103e-10
-5.78252961e-21
0
2.04431861e-10
1.15651293e-20
0
2.60333171e-10
5.78260845e-21
-4.62604422e-20
3.29214016e-10
5.78266649e-21
-9.25215737e-20
4.13730262e-10
0
4.62612232e-20
5.16810136e-10
-1.1565684e-20
-9.25234839e-20
6.41664544e-10
5.78294565e-21
9.25246088e-20
7.91647222e-10
1.15661904e-20
-1.85052439e-19
9.70104299e-10
-2.12815045e-26
-9.25281842e-20
1.18015527e-09
1.15669626e-20
-9.25301154e-20
1.42438258e-09
-3.27818167e-26
9.25330026e-20
1.70447238e-09
-5.78405138e-21
4.26208597e-25
2.02075162e-09
1.15687522e-20
5.08716628e-25
2.37167126e-09
5.78473933e-21
9.25436739e-20
2.75329003e-09
0
9.2547064e-20
3.15883517e-09
-5.78564099e-21
9.25512196e-20
3.57844374e-09
5.78613761e-21
-9.2555393e-20
3.99919713e-09
-5.7867517e-21
0
4.40555767e-09
0
-1.8512392e-19
4.78027592e-09
-1.30532351e-25
0
5.10574956e-09
0
5.36568877e-09
0
-1.8513693e-19
-5.78241837e-21
1.02884494e-11
5.7824182e-21
-6.79340492e-28
3.12137859e-11
5.78243172e-21
-1.06626017e-27
5.34730025e-11
5.78244633e-21
-2.31297708e-20
7.84989031e-11
0
-2.31298171e-20
1.07932849e-10
-5.78248719e-21
2.312987e-20
1.4355727e-10
-5.78250913e-21
0
1.87380844e-10
0
0
2.41693007e-10
0
-4.62603113e-20
3.09143328e-10
5.78263635e-21
4.62606493e-20
3.92785169e-10
-1.1565416e-20
-4.6261003e-20
4.96069069e-10
-5.78280032e-21
4.6261492e-20
6.22913209e-10
0
9.25242052e-20
7.77600942e-10
0
-9.2525899e-20
9.6469544e-10
-5.78322874e-21
0
1.1889753e-09
5.78341986e-21
9.25298472e-20
1.45501413e-09
-5.78367782e-21
-9.25332641e-20
1.76678443e-09
1.15680176e-20
9.25362033e-20
2.12724692e-09
-4.88931282e-26
5.25082165e-25
2.5376802e-09
-1.15696459e-20
9.25443877e-20
2.99692106e-09
0
2.77646992e-19
3.50057282e-09
0
1.85109048e-19
4.04027777e-09
5.78647219e-21
1.85119136e-19
4.60321401e-09
-1.18512871e-25
-1.15399904e-24
5.17198695e-09
-1.35631069e-25
-2.57531395e-24
5.72510661e-09
-5.78864279e-21
0
6.23820378e-09
-1.15784238e-20
0
6.68600717e-09
-5.78987379e-21
7.04488645e-09
1.15802935e-20
-1.85167271e-19
5.78241885e-21
1.18653627e-11
5.78241885e-21
-2.31297065e-20
3.60164109e-11
0
-1.15648711e-20
6.17718652e-11
0
0
9.08512842e-11
1.42853105e-27
2.31298356e-20
1.25235025e-10
1.15649845e-20
-4.62597967e-20
1.67094006e-10
0
9.2519928e-20
2.18893167e-10
0
4.62601692e-20
2.83485117e-10
5.78260886e-21
-4.62604446e-20
3.64204121e-10
0
3.780466e-26
4.64914075e-10
5.78274377e-21
1.38783854e-19
5.90102993e-10
0
-1.38785549e-19
7.4489754e-10
-1.1565961e-20
1.85050389e-19
9.34969656e-10
5.7831365e-21
0
1.16658796e-09
-5.78336499e-21
9.25292057e-20
1.44639232e-09
0
-9.25323214e-20
1.78087958e-09
-3.76857632e-26
9.25353525e-20
2.17603706e-09
-5.78434434e-21
5.21939084e-25
2.63678777e-09
5.78475902e-21
6.40737893e-25
3.166028e-09
0
7.77793407e-25
3.7635407e-09
-5.78603192e-21
9.25575909e-20
4.4248143e-09
-1.06886893e-25
2.20448506e-24
5.13986192e-09
-5.78760414e-21
9.25709763e-20
5.89231632e-09
-5.788499e-21
0
6.65901967e-09
1.15785232e-20
-1.85168615e-19
7.41043871e-09
1.15805449e-20
0
8.11222432e-09
-5.79126086e-21
-3.92182916e-24
8.72805401e-09
-5.79205425e-21
9.22352856e-09
0
1.85202102e-19
5.78241945e-21
1.3572761e-11
5.78241945e-21
1.15648554e-20
4.12202867e-11
-1.15648717e-20
-2.31297491e-20
7.07786451e-11
-5.78245305e-21
2.31297924e-20
1.04291986e-10
1.15649469e-20
0
1.44126088e-10
-2.18471804e-27
-2.31299266e-20
1.92896588e-10
-5.78253337e-21
-4.62600245e-20
2.53601738e-10
-5.78257943e-21
0
3.29750031e-10
-5.78262463e-21
0
4.25483396e-10
0
4.24583153e-26
5.45686749e-10
-9.34121696e-27
4.62615074e-20
6.96094629e-10
0
1.3878668e-19
8.83297826e-10
-1.60057484e-26
0
1.11480421e-09
0
-9.2528242e-20
1.39912865e-09
0
-1.85062556e-19
1.74537254e-09
-5.78382355e-21
-3.95397786e-25
2.16253896e-09
-5.78421402e-21
0
2.65937627e-09
5.78463831e-21
-1.85086903e-19
3.24379688e-09
5.78520801e-21
-9.25486161e-20
3.92130345e-09
5.78589098e-21
1.89503748e-24
4.69353008e-09
0
1.14661564e-24
5.55655143e-09
5.78762504e-21
1.36823977e-24
6.49897014e-09
0
0
7.50040729e-09
-1.85972877e-25
-1.85562628e-24
8.53050988e-09
-5.79103247e-21
1.85208793e-19
9.54905836e-09
5.79226293e-21
0
1.050781e-08
5.79344658e-21
-1.85243676e-19
1.13544962e-08
5.79481372e-21
1.20387996e-08
5.79537979e-21
3.70506772e-19
-1.15648404e-20
1.53950677e-11
-5.78242019e-21
-1.15648584e-20
4.67784238e-11
-5.78243781e-21
-1.15648789e-20
8.04138916e-11
-5.78245706e-21
0
1.187067e-10
5.78247795e-21
-2.31298584e-20
1.64453853e-10
-5.78250753e-21
0
2.20773493e-10
-5.78254317e-21
0
2.91274402e-10
1.15651701e-20
-4.62603829e-20
3.80224232e-10
-5.78264987e-21
3.54973547e-26
4.92717179e-10
5.78272124e-21
-4.6261164e-20
6.34836653e-10
0
4.6261821e-20
8.13805353e-10
5.7829538e-21
-4.6262531e-20
1.03809527e-09
-1.15662852e-20
-9.25272621e-20
1.31750488e-09
0
-1.85059455e-19
1.66324195e-09
0
-9.25327987e-20
2.08747688e-09
5.78398766e-21
0
2.60282413e-09
5.78438904e-21
0
3.22219091e-09
0
-9.25479369e-20
3.95736474e-09
-5.78578136e-21
1.85112427e-19
4.81753313e-09
-1.03647378e-25
-9.25640118e-20
5.80787572e-09
-5.78767377e-21
-9.25741205e-20
6.92637714e-09
5.78872168e-21
9.25855389e-20
8.16089187e-09
-5.79025932e-21
-9.25980437e-20
9.48693303e-09
0
1.8522013e-19
1.08655953e-08
5.7931679e-21
-1.85254276e-19
1.22428309e-08
5.7945086e-21
0
1.35512706e-08
-5.79678289e-21
6.49275772e-24
1.47156184e-08
-5.79828291e-21
1.56617709e-08
5.79910038e-21
1.85312599e-19
-2.2141119e-28
1.73095907e-11
0
-9.08773717e-28
5.26219894e-11
-5.78243916e-21
1.15648804e-20
9.05596983e-11
0
2.31298121e-20
1.33922387e-10
-5.78248516e-21
5.79547899e-27
1.85981025e-10
5.78250821e-21
-2.31299615e-20
2.50411618e-10
5.78254806e-21
-4.62601446e-20
3.31508607e-10
0
4.62604656e-20
4.34402341e-10
1.15653285e-20
-1.38782505e-19
5.65283289e-10
5.78274581e-21
-4.62613298e-20
7.31630468e-10
-5.78286863e-21
9.25240595e-20
9.42435207e-10
0
4.62628661e-20
1.20840162e-09
-1.96956282e-26
0
1.54210225e-09
-2.5974288e-26
-9.25309075e-20
1.95804758e-09
-3.40937507e-26
0
2.47234787e-09
-5.78422919e-21
-9.25398944e-20
3.10254337e-09
-5.78477153e-21
9.25453163e-20
3.86686656e-09
-5.78553058e-21
9.25543902e-20
4.78258026e-09
0
9.25627652e-20
5.86482644e-09
-5.78735713e-21
9.25738524e-20
7.1241084e-09
-1.52219982e-25
1.85173809e-19
8.56212835e-09
1.15798931e-20
4.08044047e-24
1.01677496e-08
0
9.26185864e-20
1.19131307e-08
0
5.77634058e-24
1.37500522e-08
1.15917306e-20
1.85303037e-19
1.56073402e-08
-3.89099553e-25
0
1.73917979e-08
1.16002051e-20
0
1.8994912e-08
-1.16052372e-20
2.0306497e-08
0
0
5.78242069e-21
1.92863439e-11
5.78242069e-21
-1.15648615e-20
5.86596904e-11
-6.9824944e-28
1.48902566e-27
1.01058383e-10
5.78245992e-21
0
1.49704517e-10
-5.78248425e-21
-2.31298868e-20
2.08379746e-10
-2.59037254e-27
2.31299844e-20
2.81367008e-10
5.78255413e-21
-4.62602106e-20
3.73714803e-10
0
4.62605014e-20
4.91513001e-10
1.15653558e-20
9.25219168e-20
6.42185812e-10
-8.8936407e-27
4.62615243e-20
8.3480189e-10
-5.78289876e-21
4.62622729e-20
1.08039376e-09
1.15660942e-20
4.6263259e-20
1.39226753e-09
-5.78325863e-21
0
1.78626887e-09
5.78353645e-21
0
2.28094325e-09
0
0
2.89748088e-09
-1.15687894e-20
9.25418404e-20
3.65946672e-09
0
-9.25495263e-20
4.59187528e-09
-8.38459768e-26
-9.25574876e-20
5.71990174e-09
-1.08399571e-25
9.25695695e-20
7.06744786e-09
-5.78795144e-21
-9.25815361e-20
8.65303604e-09
5.78945448e-21
-1.97738728e-24
1.04848918e-08
0
-9.261827e-20
1.25558012e-08
5.79341187e-21
0
1.48370061e-08
-3.38141023e-25
0
1.72718962e-08
-1.15976764e-20
0
1.97697269e-08
5.80206657e-21
0
2.22036211e-08
-1.16097101e-20
-3.70926813e-19
2.44174709e-08
-5.80801722e-21
2.62452588e-08
-6.86807301e-25
0
-2.31523935e-28
2.12883106e-11
-1.15648418e-20
0
6.4778513e-11
5.78243975e-21
-2.31297683e-20
1.11713536e-10
-1.23224961e-27
-2.3129826e-20
1.65758036e-10
-5.78248735e-21
-9.25195803e-20
2.31231826e-10
5.78251681e-21
4.62599691e-20
3.13063342e-10
0
4.62602151e-20
4.17111242e-10
-5.78261646e-21
-3.1416855e-26
5.50507308e-10
-5.7826833e-21
4.24542574e-26
7.22030431e-10
-9.23388905e-27
0
9.4251544e-10
5.78290777e-21
9.25248623e-20
1.22529203e-09
-5.78309585e-21
-4.62636006e-20
1.58663632e-09
5.78330703e-21
0
2.04619891e-09
0
1.85066692e-19
2.62734588e-09
-5.78404751e-21
9.25379019e-20
3.35731508e-09
0
2.776328e-19
4.26706579e-09
1.15704915e-20
9.25519859e-20
5.39057538e-09
5.78609088e-21
1.85126386e-19
6.76348024e-09
0
2.77727316e-19
8.42100055e-09
5.78864663e-21
0
1.03942064e-08
-5.7904321e-21
0
1.27033126e-08
5.79263048e-21
9.26330236e-20
1.53489016e-08
-5.7956007e-21
1.85326698e-19
1.83057734e-08
-5.7983901e-21
4.30437756e-24
2.15141768e-08
-5.80244385e-21
1.02462991e-23
2.48646638e-08
-5.80647018e-21
0
2.81893068e-08
-2.7295656e-21
1.85572372e-19
3.12652485e-08
-5.43221057e-21
3.38380677e-08
-1.704112e-20
0
5.78242072e-21
2.32722326e-11
0
-1.15648617e-20
7.0846085e-11
5.78243952e-21
-1.1564883e-20
1.2229396e-10
5.7824603e-21
-2.31298253e-20
1.81732879e-10
-1.84746242e-27
1.23289189e-26
2.54035779e-10
-1.15650384e-20
-4.62599965e-20
3.44800277e-10
1.15651228e-20
0
4.60732872e-10
-5.78261752e-21
4.62605266e-20
6.10066579e-10
5.78268591e-21
4.31580588e-26
8.03027111e-10
1.15655787e-20
-4.62615631e-20
1.05235688e-09
0
-7.90220013e-26
1.37389752e-09
1.15661924e-20
0
1.7872183e-09
-2.31969505e-26
2.86602374e-25
2.31625793e-09
-5.78368697e-21
0
2.98991757e-09
-5.78408192e-21
-1.85078593e-19
3.84250317e-09
-5.78470285e-21
0
4.91386391e-09
1.15708571e-20
0
6.24899739e-09
-9.92749874e-26
0
7.89685026e-09
5.78763239e-21
9.25822526e-20
9.90792872e-09
0
2.02405209e-24
1.23307564e-08
5.79110812e-21
-2.60249907e-24
1.52036486e-08
-2.89159448e-25
-9.2650451e-20
1.85445378e-08
0
0
2.23428252e-08
0
-5.14801184e-24
2.65442161e-08
5.80558203e-21
0
3.10282617e-08
8.91245931e-21
0
3.55863855e-08
-1.4327522e-20
-1.85736293e-19
3.99075667e-08
-2.32913858e-20
4.35946145e-08
-2.91395928e-20
-1.85793341e-19
0
2.51899578e-11
0
0
7.67147823e-11
5.7824386e-21
3.46946449e-20
1.32540758e-10
-5.78245876e-21
2.31298201e-20
1.97234506e-10
0
2.31298914e-20
2.76221498e-10
-2.56573922e-27
-8.32340969e-27
3.75773143e-10
5.7825578e-21
-4.62602268e-20
5.03456991e-10
1.15652167e-20
-4.62605708e-20
6.68634602e-10
0
0
8.83028628e-10
5.78278935e-21
5.81516901e-26
1.16137561e-09
0
-4.626252e-20
1.52217312e-09
-5.78309468e-21
-9.25272341e-20
1.98851722e-09
-1.15667245e-20
-9.25301485e-20
2.58900623e-09
-3.15428584e-26
-9.25345939e-20
3.35865632e-09
1.15682206e-20
-1.85079764e-19
4.33973052e-09
-5.78475967e-21
-1.85094352e-19
5.58232142e-09
-5.78549089e-21
-9.25572952e-20
7.14444554e-09
-5.78664e-21
-9.25688586e-20
9.09131233e-09
0
1.6713916e-24
1.14933141e-08
1.15796123e-20
-9.26039581e-20
1.44222067e-08
-5.79228749e-21
-9.26329299e-20
1.79432611e-08
-1.15903795e-20
0
2.21063865e-08
5.79881891e-21
3.708448e-19
2.69342383e-08
-1.43357904e-20
-6.05625287e-24
3.23982086e-08
-2.28348121e-20
0
3.83896296e-08
-8.49409982e-21
0
4.46803808e-08
-1.74744848e-20
0
5.08620351e-08
-2.33346573e-20
5.63066986e-08
-1.16841429e-20
0
-5.78242008e-21
2.69903406e-11
-2.08211123e-28
-8.5866094e-28
8.22275478e-11
5.7824376e-21
2.31297582e-20
1.4217753e-10
-1.11447567e-27
-2.31298102e-20
2.11839421e-10
5.78247883e-21
5.67630986e-27
2.97172661e-10
-2.42296492e-27
-7.89214721e-27
4.05104454e-10
-3.39211427e-27
4.62601596e-20
5.44046858e-10
0
4.62604834e-20
7.24477186e-10
-1.15653441e-20
-9.25218892e-20
9.59610677e-10
1.15655287e-20
4.62615801e-20
1.26619053e-09
-5.78290656e-21
-4.62623405e-20
1.66541416e-09
-1.15661761e-20
-1.04353329e-25
2.18400374e-09
0
0
2.8554111e-09
0
0
3.7211183e-09
5.78408137e-21
0
4.83195247e-09
5.78467908e-21
-9.25482759e-20
6.24927166e-09
-7.71316162e-26
-9.58068537e-25
8.04579353e-09
5.78656359e-21
9.2572508e-20
1.03057314e-08
5.78800568e-21
-9.25856813e-20
1.31237722e-08
-1.15800328e-20
0
1.66022898e-08
-2.52122759e-25
1.8528134e-19
2.08459863e-08
1.15919011e-20
9.26841377e-20
2.59540437e-08
-4.4497475e-25
-1.85462189e-19
3.20087717e-08
-1.74189372e-20
1.85593277e-19
3.90541647e-08
-2.32534416e-20
0
4.7053845e-08
-2.91141183e-20
0
5.58251611e-08
-2.33369301e-20
0
6.49061716e-08
-1.75453751e-20
7.3320237e-08
-1.17245178e-20
-1.86396634e-19
-1.15648386e-20
2.86216068e-11
0
1.15648549e-20
8.72251662e-11
-5.78243517e-21
3.46946194e-20
1.50923246e-10
0
-4.62595909e-20
2.25115091e-10
-1.53530775e-27
5.17507346e-27
3.16256068e-10
-5.78250166e-21
2.31299336e-20
4.31886278e-10
0
-4.62600875e-20
5.81212266e-10
-4.29811369e-27
1.38781219e-19
7.75768239e-10
0
-3.78054227e-26
1.03019356e-09
5.78273672e-21
4.62614125e-20
1.36316112e-09
-5.78285831e-21
4.62622005e-20
1.79848722e-09
-1.53896651e-26
9.75860172e-26
2.36644594e-09
-5.78325209e-21
0
3.1052968e-09
1.15671545e-20
9.25331414e-20
4.06301163e-09
0
-1.85076929e-19
5.29915103e-09
0
0
6.88679079e-09
5.78527458e-21
1.85110981e-19
8.91433348e-09
0
1.25918441e-24
1.14869694e-08
1.15758423e-20
-9.25866291e-20
1.47274991e-08
-1.15797834e-20
1.85228478e-19
1.87762487e-08
5.79242571e-21
-9.26433822e-20
2.37899681e-08
-5.79631325e-21
-1.85375127e-19
2.99399852e-08
3.09897249e-21
-1.85495331e-19
3.74096233e-08
-8.48253518e-21
0
4.63894588e-08
-1.16336746e-20
-1.85887964e-19
5.70527668e-08
-2.33167745e-20
1.86223523e-19
6.94480467e-08
-1.75394319e-20
0
8.32424081e-08
-1.76059298e-20
9.70195572e-08
-1.76761128e-20
1.86985017e-19
-1.63345389e-28
3.00340399e-11
5.78241809e-21
0
9.15545599e-11
0
-1.07941536e-27
1.58507011e-10
0
0
2.36643e-10
5.78246466e-21
-2.31298257e-20
3.32856087e-10
5.78248802e-21
-4.62597939e-20
4.5523083e-10
5.78251909e-21
0
6.13683407e-10
-3.75523011e-27
0
8.20697336e-10
5.78261853e-21
-9.25212345e-20
1.09219869e-09
-7.17078379e-27
1.3878349e-19
1.44861498e-09
0
9.25237357e-20
1.91616051e-09
-5.78296731e-21
0
2.52838746e-09
-1.87282506e-26
2.38615696e-25
3.32803289e-09
-5.78346346e-21
0
4.36917791e-09
5.78385741e-21
-9.25369717e-20
5.71971294e-09
-5.78439757e-21
-9.25438152e-20
7.46407681e-09
1.15702084e-20
-9.25531846e-20
9.70621656e-09
5.78605932e-21
1.16169391e-24
1.25727341e-08
1.15749517e-20
-9.25820439e-20
1.62163263e-08
5.78926971e-21
2.18858463e-24
2.08200405e-08
0
0
2.66038032e-08
3.07720096e-21
-1.85379471e-19
3.38363306e-08
-2.69043263e-21
-2.7826534e-19
4.28574897e-08
-1.74234654e-20
1.85723828e-19
5.41162317e-08
-2.32742516e-20
0
6.82204846e-08
-1.16683555e-20
0
8.59181944e-08
-5.8592325e-21
1.87172804e-19
1.0757717e-07
-2.35822531e-20
1.31303902e-07
-1.78269673e-20
0
-5.78241687e-21
3.11828039e-11
0
-5.49137067e-28
9.50774937e-11
-5.78242821e-21
-1.15648591e-20
1.64683603e-10
-7.14311945e-28
0
2.46043058e-10
5.78245595e-21
2.31298003e-20
3.46411445e-10
5.78247557e-21
-2.31298515e-20
4.74325152e-10