/*--------------------------------*- C++ -*----------------------------------*\
| =========                 |                                                 |
| \\      /  F ield         | foam-extend: Open Source CFD                    |
|  \\    /   O peration     | Version:     4.1                                |
|   \\  /    A nd           | Web:         http://www.foam-extend.org         |
|    \\/     M anipulation  |                                                 |
\*---------------------------------------------------------------------------*/
FoamFile
{
    version     2.0;
    format      ascii;
    class       volScalarField;
    location    "0.4";
    object      p;
}
// * * * * * * * * * * * * * * * * * * * * * * * * * * * * * * * * * * * * * //

dimensions      [0 2 -2 0 0 0 0];

internalField   nonuniform List<scalar> 
35840
(
79.3824475
64.738143
55.6731558
51.3527881
48.4018865
46.0625262
44.2224597
42.7074769
41.3815564
40.1744227
39.0486973
37.9814619
36.9580358
35.9687352
35.0067611
34.0670272
33.1455626
32.2391825
31.3453046
30.4618344
29.5870802
28.7196983
27.8586512
27.0031721
26.1527339
25.3070219
24.4659073
23.6294204
72.5024476
62.0967105
54.9111257
51.1312505
48.3622669
46.0797413
44.2596599
42.754787
41.4308614
40.2207291
39.0903917
38.0183034
36.9901981
35.996587
35.0307545
34.0876138
33.1631546
32.2541536
31.3579913
30.4725272
29.5960304
28.7271283
27.8647629
27.0081506
26.1567519
25.3102424
24.4684854
23.6315043
69.3118585
60.5477213
54.1938479
50.6921047
48.1075524
45.9507995
44.2028864
42.7407944
41.4423426
40.2463057
39.1231525
38.0541911
37.0268187
36.0325775
35.0653755
34.1204704
33.1940318
32.282925
31.3845708
30.4968553
29.6180641
28.7468349
27.8821203
27.0231531
26.1694146
25.3206057
24.4766187
23.6375079
67.6948778
59.359423
53.461107
50.2346587
47.8420648
45.8243572
44.1644963
42.7546741
41.4864092
40.3065124
39.1907296
38.1239385
37.095786
36.0991859
35.1288489
34.1804631
33.2504024
32.3356092
31.4335183
30.5420025
29.6593283
28.7841227
27.9153363
27.0522129
26.1942592
25.3412155
24.4930249
23.6498015
66.5942805
58.3915235
52.7868547
49.8025348
47.580672
45.6912765
44.1228468
42.7728814
41.5417934
40.3837195
39.2795285
38.2177113
37.1903959
36.1921326
35.2186696
34.2663217
33.3318164
32.4122776
31.5052192
30.6085364
29.720495
28.8397183
27.9651594
27.0960788
26.2320192
25.3727764
24.5183672
23.6689946
65.7967298
57.6649806
52.2310465
49.4109735
47.3194383
45.537316
44.0536956
42.7655722
41.5773216
40.447902
39.3620395
38.3111743
37.289656
36.2936386
35.3199846
34.3657578
33.4281734
32.5046598
31.5929136
30.6909339
29.7970501
28.9099286
28.0285615
27.1522596
26.2806335
25.4135685
24.5511926
23.6938394
65.1976668
57.1068797
51.7717215
49.0606527
47.0674544
45.372051
43.9613594
42.7306654
41.5857327
40.4881372
39.4250641
38.3900251
37.3790528
36.3896041
35.41951
34.4665348
33.5283876
32.6028367
31.6878069
30.781451
29.8822071
28.9888222
28.1003659
27.2162359
26.3361489
25.4601209
24.5884376
23.7216148
64.7313616
56.664899
51.3908584
48.754044
46.8343346
45.2072937
43.8567907
42.6762887
41.5717056
40.5057992
39.4671475
38.4505845
37.4532919
36.473664
35.5102657
34.5614182
33.6252425
32.6998046
31.7832384
30.8738489
29.9701855
29.0710858
28.1757126
27.2835718
26.3945139
25.5087226
24.6266874
23.7491612
64.3596522
56.3089983
51.0751126
48.4897346
46.624509
45.0507838
43.7492481
42.6115237
41.5430859
40.5070369
39.492632
38.4954769
37.5134823
36.5456673
35.5911054
34.6485166
33.7163231
32.7928095
31.8762664
30.9651104
30.0579711
29.1537608
28.2517265
27.351483
26.453029
25.556743
24.6633611
23.7739307
64.0587789
56.0190169
50.8126591
48.2637288
46.439222
44.9071851
43.6454181
42.5438225
41.5071912
40.498518
39.5072768
38.5294572
37.5633856
36.6084599
35.6640726
34.7291977
33.8024468
32.8822352
31.9669402
31.0550285
30.1451625
29.2362898
28.3277128
27.4191398
26.5107181
25.6030429
24.6971386
23.7944086
63.812875
55.780921
50.5941734
48.071804
46.2782033
44.7790195
43.5496597
42.4785325
41.469695
40.4858068
39.516282
38.5572286
37.6071593
36.66566
35.7322869
34.8061405
33.8859151
32.970069
32.0569848
31.1451069
30.2330669
29.3197904
28.4045892
27.487235
26.5680132
25.6477495
24.7278004
23.8100004
63.6108742
55.5847234
50.4124454
47.9099808
46.1402727
44.6672849
43.4645415
42.419217
41.4346715
40.4731385
39.5238181
38.5827657
37.6485185
36.7207066
35.7989238
34.8822859
33.9694732
33.0588954
32.1488519
31.2376821
30.3239057
29.4063507
28.4842711
27.5574512
26.6262896
25.6918514
24.7558744
23.8207157
63.4447481
55.4230522
50.2617935
47.7746568
46.0238031
44.572025
43.3913995
42.3681139
41.4049136
40.463592
39.5330632
38.609229
37.6905431
36.7765755
35.8668577
34.9604285
34.0558638
33.1514309
32.2452526
31.3354662
30.4203787
29.4986193
28.5692909
27.6321139
26.6875536
25.7369121
24.7823618
23.8268974
63.3084548
55.2902794
50.1376626
47.6626497
45.927006
44.4927096
43.3307358
42.3265006
41.3822331
40.4593147
39.5463537
38.639047
37.7356988
36.8357466
35.9385868
35.0431051
34.1476873
33.2503676
32.348992
31.4413822
30.5255076
29.599667
28.6626814
27.7140924
26.7543515
25.784974
24.8086215
23.8290719
63.1972915
55.1819728
50.0363251
47.571158
45.8480673
44.4284643
43.282488
42.2949629
41.3677004
40.4617198
39.5653356
38.6740233
37.7859037
36.9002388
36.0162409
35.1325784
34.2473731
33.3583388
32.4629365
31.5585418
30.6426335
29.7130073
28.7680209
27.8068652
26.8298433
25.8386217
24.8363977
23.8279151
63.1074821
55.0945385
49.9546619
47.4976988
45.7852082
44.37821
43.2462095
42.2735842
41.3618209
40.4716363
39.5910832
38.7154232
37.8425867
36.9716449
36.1015922
35.2308347
34.3571708
33.4779099
32.5900154
31.690269
30.7754717
29.8426915
28.8895716
27.9146968
26.9180018
25.9011728
24.8679621
23.8243037
63.0359051
55.0249798
49.8900026
47.4400456
45.7367072
44.3407449
43.2211843
42.262073
41.3646573
40.4894156
39.6241822
38.7640331
37.9067264
37.0511425
36.1960476
35.3395639
34.4791224
33.6115546
32.7332128
31.8401209
30.9281775
29.9934347
29.0324749
28.0429004
27.0239213
25.9769897
24.9063648
23.8194308
62.9799101
54.970733
49.8400102
47.3961729
45.7009013
44.3147877
43.2064988
42.2598465
41.3759126
40.5150016
39.6647845
38.8201987
37.9788596
37.1394802
36.300617
35.4601105
34.6150037
33.7615957
32.895523
32.0118784
31.105397
30.1707502
29.2029905
28.1981862
27.1542542
26.0719445
24.9558263
23.815008
62.9371926
54.9295542
49.8025981
47.3642118
45.6761789
44.2990024
43.2010864
42.2660848
41.3949821
40.5479777
39.7126453
38.8838345
38.0590675
37.2369425
36.4158518
35.5933884
34.7662209
33.930094
33.0798492
32.209481
31.3122724
30.3810689
29.4087681
28.3891085
27.3178156
26.1940994
25.0223359
23.8135739
62.9057075
54.8994398
49.7758704
47.3424158
45.6609704
44.2920104
43.2037556
42.2797642
41.4209914
40.5876022
39.7671352
38.9544159
38.1469483
37.3432927
36.5417549
35.739756
34.9336533
34.1186682
33.2888185
32.4368698
31.554363
30.6318028
29.6591292
28.6266277
27.526435
26.3547463
25.1146213
23.8190012
62.8836113
54.8785741
49.7580815
47.329136
45.6537423
44.2924002
43.2132062
42.2996872
41.4528302
40.6328245
39.8272421
39.0309678
38.2415781
37.4576977
36.6776627
35.8988496
35.1174332
34.3282249
33.5244797
32.697688
31.8374126
30.9312781
29.9652913
28.9247566
27.7961086
26.5700243
25.2459132
23.8377288
62.8692243
54.8652941
49.7476102
47.3228085
45.6529958
44.2987308
43.228054
42.3245152
41.4891704
40.6822969
39.8915801
39.1120521
38.3414672
37.5786443
36.8221076
36.0693769
35.3166589
34.558581
33.7878401
32.994768
32.1668645
31.2884112
30.3403993
29.3011648
28.1483278
26.8628951
25.4361451
23.8803774
62.8610105
54.8580695
49.742946
47.3219494
45.6572647
44.3095544
43.2468641
42.3527857
41.5284871
40.7344027
39.9584046
39.1957626
38.4445262
37.7038606
36.9726752
36.2488847
35.5290422
34.8079652
34.0782043
33.3293198
32.5469779
31.7119482
30.7992369
29.7778505
28.6121235
27.2663261
25.714501
23.9607029
62.8575786
54.8554949
49.7426806
47.3251522
45.6651411
44.3234486
43.2681642
42.3829389
41.569101
40.7872944
40.0256433
39.2797433
38.5480585
37.8302647
37.1258815
36.4335278
35.7505192
35.0724084
34.3922805
33.699709
32.9793016
32.2088125
31.3569564
30.3814047
29.2280334
27.8337163
26.1366541
24.1117755
62.8576618
54.8562887
49.7455249
47.3311152
45.6752931
44.3390267
43.2904738
42.4133694
41.6092313
40.83895
40.090955
39.3612423
38.6487987
37.9539673
37.2771105
36.6178914
35.9748833
35.3450825
34.7230895
34.0997848
33.4602782
32.780893
32.025079
31.1384058
30.0441366
28.6407318
26.8089078
24.4465195
62.8600958
54.8593119
49.7503297
47.3386468
45.6864739
44.3549664
43.3123579
42.4424831
41.6470631
40.8872543
40.151823
39.4372153
38.7430179
38.0703662
37.4206656
36.7949454
36.1935494
35.6157229
35.0588267
34.5169047
33.9781863
33.4208778
32.8063814
32.068745
31.1011057
29.739555
27.7809586
24.9723546
62.8638682
54.8635797
49.7560844
47.3466763
45.6975603
44.370058
43.3324787
42.468763
41.6808321
40.9301048
40.205687
39.5044861
38.826716
38.1743641
37.5499976
36.9562371
36.3956094
35.8703524
35.3818991
34.9297378
34.5090918
34.1063999
33.6903887
33.1944265
32.4820721
31.2815847
29.1449136
25.1829649
62.8681546
54.8682623
49.761931
47.3543012
45.7075887
44.3832473
43.349652
42.490844
41.7089222
40.9655397
40.2501104
39.559966
38.8959076
38.2607381
37.6581685
37.0924428
36.5684169
36.0917083
35.6687109
35.3062722
35.0106587
34.7849731
34.6228046
34.493146
34.30348
33.807945
32.2995786
26.9747205
72.661681
62.2195875
54.9839016
51.1554296
48.3507577
46.0433932
44.2066451
42.692387
41.3650786
40.1558867
39.0292802
37.9625004
36.9403922
35.9528706
34.9928623
34.055095
33.1354862
32.2308002
31.3384383
30.456304
29.5827131
28.7163324
27.8561351
27.0013631
26.1514974
25.3062302
24.4654385
23.6291585
64.9419519
59.5477045
54.626828
51.352983
48.6822558
46.3696004
44.4751025
42.9040202
41.5313836
40.2870399
39.1342693
38.0483032
37.0117324
36.0129039
35.043808
34.0985788
33.1727371
32.2627823
31.3659325
30.479956
29.6030666
28.7338546
27.8712341
27.0144013
26.162801
25.3160958
24.4741383
23.6369428
61.7015742
58.1984167
54.2055471
51.1354092
48.6012216
46.3934725
44.5400346
42.9785679
41.6061864
40.3581293
39.2000184
38.1086594
37.0671343
36.0638088
35.0906225
34.1416433
33.2123166
32.299076
31.3990894
30.5100901
29.630268
28.7581972
27.8927844
27.0332269
26.1789773
25.3297129
24.485306
23.6457946
60.1251071
57.0424906
53.5290065
50.7391496
48.3942664
46.3269878
44.5575217
43.039243
41.6880249
40.4484145
39.2911366
38.1966879
37.1503973
36.14175
35.1632089
34.2090631
33.2748123
32.3568611
31.4523191
30.5588582
29.6746165
28.7981313
27.9282894
27.0642856
26.205587
25.3519009
24.5031423
23.6594014
59.0191914
56.0433573
52.8444361
50.3250141
48.1540457
46.2105406
44.529608
43.0691474
41.7536528
40.5349207
39.3883499
38.2978925
37.2514493
36.2402152
35.2577124
34.298862
33.3595156
32.4362515
31.5262488
30.6271946
29.7372197
28.8548509
27.9789725
27.1087922
26.2438094
25.3837828
24.5286975
23.6787291
58.2118209
55.2983145
52.2783559
49.9373053
47.8968359
46.0554759
44.4566056
43.0571131
41.7845022
40.5952297
39.4681175
38.3896282
37.3497346
36.3412516
35.3588642
34.3982922
33.455919
32.5286625
31.6139088
30.7094682
29.8135463
28.9247222
28.0419275
27.1644257
26.2917882
25.4238663
24.5607585
23.7027719
57.6046687
54.7267501
51.8065612
49.5823405
47.6426605
45.8861979
44.3585905
43.015694
41.7861296
40.6290313
39.5255147
38.4637836
37.4352906
36.4340904
35.4558296
34.4969395
33.5543187
32.625248
31.7073628
30.7986433
29.8974148
29.0023501
28.1124677
27.2271259
26.3460085
25.4691035
24.5966719
23.729207
57.1313815
54.2739005
51.4145532
49.2700003
47.4068658
45.7184786
44.2500938
42.9567263
41.7671374
40.641701
39.562908
38.5201256
37.5058163
36.5149075
35.5437546
34.5893377
33.6489687
32.7202328
31.8009843
30.8893604
29.9838041
29.0830874
28.1863276
27.292996
26.4029158
25.5162475
24.6334606
23.7552906
56.7539905
53.9098405
51.090338
49.0008367
47.1946604
45.559902
44.1401401
42.8892562
41.7356031
40.639945
39.5854831
38.562301
37.5635192
36.5846511
35.6225452
34.6745732
33.7383458
32.8116684
31.8925526
30.9792467
30.0702788
29.1644973
28.2611052
27.3596853
26.4602114
25.5630416
24.6688952
23.7788069
56.4486617
53.6137425
50.8214614
48.7708474
47.0073089
45.4148318
44.0349077
42.8201294
41.6982287
40.6299139
39.598646
38.5948781
37.6121148
36.6462302
35.694386
34.754206
33.8234898
32.9001741
31.9823545
31.0683304
30.1566639
29.2462382
28.3363108
27.4265575
26.5171015
25.6085208
24.7018257
23.7984079
56.1992981
53.3709962
50.5980637
48.5757444
46.8445924
45.2856049
43.9383347
42.7541365
41.6600672
40.6165533
39.6070318
38.6220741
37.6553586
36.702941
35.7621456
34.8307238
33.9065601
32.9876322
32.0720403
31.1580636
30.2442314
29.3294029
28.4128442
27.4942951
26.5740168
25.6528169
24.7320386
23.8135071
55.9946139
53.1712206
50.4125429
48.4114022
46.7052745
45.1730584
43.8527064
42.6944828
41.6247908
40.6036783
39.6143989
38.6474768
37.696612
36.7579037
35.8287157
34.906818
33.9900807
33.0764321
32.1638908
31.2506303
30.3350669
29.4159604
28.4925179
27.564489
26.6322464
25.6968366
24.7599846
23.8240403
55.8263958
53.0067557
50.2589137
48.2740595
46.5876567
45.0771414
43.7792095
42.6432149
41.5949727
40.5941311
39.6236848
38.6740118
37.7387306
36.8138825
35.8967735
34.985098
34.0766207
33.1691295
32.260468
31.3486058
30.4317448
29.5084438
28.5777555
27.6393625
26.6937015
25.7420538
24.7865785
23.8302651
55.688453
52.8717628
50.1324
48.1604087
46.4898954
44.9972721
43.7182707
42.6015132
41.5723121
40.589937
39.6371005
38.7039837
37.7840596
36.8732427
35.9687066
35.0679922
34.168677
33.2683193
32.364485
31.4548268
30.5372064
29.6098489
28.6715209
27.7217217
26.7608691
25.7904536
24.8131214
23.8326467
55.5759674
52.7616578
50.0291167
48.0675537
46.4101334
44.9325449
43.66979
42.5699169
41.5578258
40.5924514
39.6562328
38.7391377
37.8344621
36.9379496
36.0465895
35.1577097
34.2686298
33.376588
32.4787645
31.5723646
30.6547567
29.723659
28.7773688
27.8150274
26.8368963
25.8446096
24.8413442
23.8318403
55.4850752
52.6727361
49.945831
47.9929412
46.346559
44.8818617
43.6333023
42.5484889
41.5519963
40.6024789
39.6821315
38.7807171
37.8913462
37.0095714
36.1321706
35.2562175
34.3787109
33.4964847
32.6062221
31.7045341
30.7881088
29.8539315
28.8995772
27.9235699
26.9257894
25.9078761
24.8735515
23.8287429
55.4125893
52.6019208
49.8797906
47.9342926
46.2974262
44.8440079
43.6080829
42.5369297
41.5548784
40.6203629
39.7153768
38.8295035
37.9556799
37.0892762
36.2268525
35.3652029
34.5009596
33.6304825
32.749846
31.8549036
30.941439
30.0054154
29.0433366
28.0527277
27.0327227
25.9847033
24.9128767
23.8246137
55.355811
52.5465904
49.8286001
47.8895451
46.2610537
44.8176943
43.5932143
42.5346546
41.5661741
40.6460496
39.7561233
38.8858375
38.0279966
37.1778151
36.3316485
35.4860118
34.6371554
33.780912
32.9126445
32.0272776
31.1194308
30.1836809
29.2149879
28.2093196
27.1644826
26.0811144
24.9636919
23.8212905
55.3124009
52.5044594
49.7901308
47.8568028
46.235817
44.8015791
43.5876286
42.5408449
41.5852842
40.679128
39.8041214
38.9496316
38.1083821
37.275477
36.4471119
35.6195619
34.788711
33.9498452
33.0975395
32.2256268
31.3272774
30.3952376
29.4222968
28.4020598
27.3300871
26.2054042
25.0322215
23.8215071
55.2802896
52.4734951
49.7624577
47.8343002
46.2201375
44.7942806
43.5901347
42.5544838
41.6113411
40.7188505
39.8587393
39.0203662
38.1964382
37.3820262
36.5732478
35.7662156
34.9565121
34.1389115
33.3071781
32.4539283
31.5705998
30.6475996
29.6747434
28.6421382
27.541669
26.3692239
25.1275332
23.8293383
55.2576173
52.4518622
49.7438158
47.8203766
46.2124764
44.7943865
43.5994406
42.5743796
41.6432257
40.764162
39.9189698
39.0970681
38.2912405
37.49663
36.709394
35.9256111
35.1406947
34.3490257
33.5436261
32.7158599
31.8552088
30.9492125
29.9837437
28.9438762
27.815677
26.5893144
25.2635134
23.8517107
55.2426943
52.4378854
49.7325721
47.8134608
46.2113326
44.8004654
43.6141662
42.5991821
41.679604
40.8137191
39.9834267
39.1782976
38.3912983
37.6177745
36.8540815
36.0964541
35.3403553
34.5800056
33.8078996
33.0142812
32.1866103
31.3091175
30.3626621
29.3252866
28.1740631
26.8892097
25.4607626
23.9001528
55.2339769
52.4300285
49.7272113
47.8120671
46.21525
44.8110715
43.6328623
42.6274218
41.7189547
40.8659038
40.0503633
39.2621465
38.4945201
37.7431842
37.0048904
36.276284
35.5531962
34.8300692
34.0992961
33.3504088
32.5691069
31.7361809
30.8265404
29.8088026
28.6463423
27.3018862
25.7467568
23.9842011
55.2300512
52.4268798
49.7263297
47.8147982
46.222819
44.8247668
43.6540489
42.6575427
41.7595973
40.9188664
40.117705
39.3462559
38.598205
37.8697708
37.1583275
36.4612416
35.7751332
35.0952199
34.4144893
33.7225737
33.0042307
32.2373768
31.3907705
30.4216634
29.2745718
27.8834802
26.1785741
24.1308397
55.2296419
52.4271581
49.7286384
47.8203474
46.2326938
44.8401582
43.6762499
42.6879394
41.7997497
40.9705835
40.1831079
39.4278696
38.6990809
37.9936357
37.3097626
36.6458907
35.9999275
35.3685815
34.7464319
34.1245313
33.4882997
32.8144177
32.0664979
31.1897107
30.106035
28.7106849
26.8705491
24.4785923
55.2316273
52.4297358
49.7329826
47.827514
46.2436277
44.8559281
43.698033
42.7170183
41.8375965
41.0189377
40.2440519
39.5039379
38.7934112
38.1101647
37.4534809
36.8231728
36.2189485
35.6398196
35.0832163
34.5435035
34.0094407
33.4598011
32.8560588
32.1308128
31.1730177
29.8051648
27.8038793
24.9247768
55.2350342
52.4336357
49.7383521
47.8352356
46.2545026
44.8708714
43.7180633
42.7432636
41.8713728
41.0618246
40.2979728
39.5712786
38.8771871
38.2142477
37.5829126
36.9846001
36.4212293
35.8948573
35.407091
34.9579428
34.5435324
34.1513518
33.750884
33.2738023
32.5741662
31.3322661
29.0208873
24.5093295
55.2390452
52.4380322
49.7438947
47.8426164
46.2643602
44.883938
43.7351596
42.7653112
41.8994621
41.0972803
40.3424304
39.626798
38.9464155
38.3006494
37.691099
37.1208129
36.5940547
36.1162992
35.6942029
35.3353521
35.0473422
34.8353133
34.6961784
34.6036015
34.4690731
34.0231725
32.49033
26.0964946
69.7445104
60.9360813
54.4983215
50.893943
48.2174291
45.9846676
44.1763302
42.6701255
41.3426909
40.1299925
38.9994538
37.929669
36.9058085
35.9177246
34.9581342
34.0215073
33.1035208
32.2007487
31.3104527
30.4304397
29.5589613
28.6946433
27.8364317
26.9835511
26.13547
25.2918711
24.4526238
23.6177571
61.9882739
58.4836446
54.4627612
51.3386405
48.743944
46.4808623
44.5811746
42.9840691
41.5861818
40.3208826
39.1517852
38.0540497
37.0094667
36.0054104
35.0330893
34.0860496
33.1593714
32.2492372
31.3526459
30.4672184
29.5910689
28.7227192
27.8610353
27.0051793
26.1545697
25.3088482
24.4678495
23.6315723
58.7457035
57.2505548
54.2533623
51.3157766
48.827558
46.6504846
44.7604805
43.1379316
41.7147624
40.4296487
39.2446894
38.1344851
37.0801876
36.0683487
35.0895722
34.1370231
33.205517
32.2910464
31.3904794
30.5013487
29.6217095
28.7500442
27.8851948
27.0263116
26.1728115
25.3243425
24.4807521
23.6420558
57.1896866
56.1279187
53.6457511
51.0083685
48.7132437
46.6759811
44.8597265
43.2633506
41.8457165
40.5574322
39.3647192
38.2450167
37.1812582
36.1606383
35.1738761
34.2141008
33.2760279
32.3555164
31.449302
30.5548042
29.6699894
28.7932759
27.923466
27.0596923
26.2013744
25.3481809
24.4999938
23.6568743
56.0869136
55.1266809
52.9779578
50.6357762
48.5218794
46.6064159
44.8740447
43.3286077
41.9396344
40.6667394
39.4808006
38.3622044
37.2961266
36.2712269
35.2790898
34.3133676
33.3690828
32.4422487
31.5296594
30.6287415
29.7374476
28.8541792
27.9777305
27.1072422
26.2421617
25.3822055
24.5273226
23.6776564
55.2748016
54.3742806
52.4132095
50.2634561
48.2842538
46.4692309
44.817258
43.33083
41.9822099
40.7366489
39.5688357
38.4614455
37.4014823
36.3790687
35.3868321
34.419147
33.4715393
32.5403618
31.6226264
30.7158966
29.8182125
28.9280391
28.0442272
27.1659802
26.2928235
25.4245709
24.561289
23.7032566
54.6608948
53.793599
51.9344516
49.9087504
48.0341512
46.3043075
44.723634
43.29379
41.9876715
40.7736158
39.6289954
38.5382332
37.4897197
36.4747501
35.4868475
34.5210361
33.5733172
32.6403911
31.7195164
30.8084315
29.9053052
29.0087066
28.1175831
27.2312421
26.3493303
25.4718064
24.5989075
23.7311057
54.1805791
53.3315004
51.5332829
49.5914241
47.7964905
46.1355366
44.6144859
43.2346845
41.9687926
40.7864217
39.6665457
38.5948264
37.5606548
36.5561894
35.5756453
34.6145663
33.6693394
32.7369502
31.8148661
30.900978
29.9935721
29.0913189
28.1932682
27.2988458
26.4078431
25.5203978
24.6369623
23.7582581
53.7968023
52.9593024
51.200489
49.3160582
47.580187
45.97367
44.501818
43.1652278
41.9358564
40.7836124
39.6882966
38.6363674
37.6178973
36.625648
35.6543389
34.6999032
33.7590159
32.8288717
31.9070865
30.991656
30.0809467
29.1737021
28.2690569
27.3665482
26.4661193
25.5681089
24.673223
23.7824863
53.4860449
52.6564067
50.9242228
49.0800229
47.3881809
45.8246906
44.3933373
43.0936202
41.896662
40.7722178
39.7004058
38.6681144
37.6658318
36.6867051
35.7257882
34.7792762
33.8440342
32.9173851
31.9970247
31.0809951
30.1676918
29.2558888
28.3447721
27.43397
26.523574
25.6141401
24.7066658
23.8025372
53.2322038
52.4081028
50.6946997
48.8796002
47.2210808
45.6916993
44.293624
43.0251914
41.8566885
40.7575087
39.7077695
38.6945179
37.7084448
36.742904
35.7931339
34.8554715
33.9268724
33.004703
32.0866631
31.1707715
30.2553884
29.3392607
28.4215787
27.5020293
26.5808391
25.6587927
24.7372201
23.8179416
53.0238755
52.2038262
50.5041907
48.7107809
47.0779162
45.5757843
44.2051689
42.9633263
41.819756
40.7434066
39.7142211
38.7192246
37.7491536
36.7974286
35.8593473
34.9312789
34.0101735
33.0933522
32.178434
31.2633314
30.3462891
29.4259505
28.5014431
27.5724606
26.639337
25.703093
24.7654396
23.8287221
52.8527002
52.0357161
50.3465112
48.5697271
46.9570156
45.4769437
44.1292014
42.9101125
41.7884708
40.732772
39.722702
38.7451559
37.7908075
36.8530393
35.9271086
35.0093222
34.0965337
33.1859285
32.2749519
31.3613117
30.4430361
29.5185655
28.5868688
27.6475677
26.701056
25.7485856
24.7922987
23.8351806
52.7123469
51.8977518
50.2166903
48.4530033
46.8564763
45.3945626
44.0661218
42.8667103
41.7645167
40.7276135
39.7354033
38.7745943
37.8357293
36.9120801
35.9987876
35.0920179
34.1884455
33.2850292
32.3789382
31.467565
30.5485961
29.6201339
28.6808569
27.7301971
26.7685225
25.7972887
24.8191218
23.8377926
52.5978772
51.7851981
50.1106761
48.3575837
46.7743551
45.3276719
44.0157781
42.833619
41.7488804
40.7292615
39.7538887
38.8092628
37.8857598
36.9764954
36.0764412
35.181561
34.2882762
33.3932309
32.4932126
31.5851664
30.6662836
29.7341543
28.7869807
27.8238285
26.8448998
25.851785
24.8476364
23.8371927
52.5053303
51.6942305
50.0251017
48.2808016
46.7087553
45.2751066
43.9776516
42.8108602
41.7420136
40.7384967
39.7791876
38.8503854
37.9422894
37.0478388
36.1618051
35.2799038
34.3982454
33.5130761
32.6206893
31.7174344
30.7998189
29.864695
28.9095323
27.9327669
26.9342041
25.9154266
24.8801231
23.8342231
52.4314434
51.6216796
49.957111
48.2202865
46.6578573
45.2355925
43.9509695
42.798098
41.7439442
40.755642
39.8118628
38.8987291
38.006276
37.1272689
36.2562687
35.3887241
34.5203886
33.6470382
32.764359
31.8679431
30.9533902
30.0165226
29.0537243
28.0624124
27.0416216
25.9926518
24.9196621
23.8300303
52.37346
51.564854
49.9042295
48.1739041
46.6199213
45.2077914
43.934775
42.7947176
41.7543518
40.7806255
39.852055
38.9546268
38.0782445
37.2155255
36.3608394
35.5093679
34.6564868
33.7974502
32.9272366
32.0405106
31.1317036
30.1952391
29.225936
28.2196208
27.1739585
26.0894611
24.970526
23.82624
52.3289981
51.5214165
49.8642707
48.1397053
46.5932774
45.1903241
43.9279694
42.7998765
41.7726184
40.8130224
39.8995094
39.0179829
38.1582724
37.3128956
36.4760739
35.6427542
34.8079545
33.9663905
33.1122588
32.239134
31.3399926
30.4074108
29.4340023
28.4131748
27.3402713
26.2141075
25.038748
23.8251787
52.2959572
51.4892975
49.8352679
48.1158866
46.5763147
45.1817812
43.929339
42.8125389
41.7978619
40.8520805
39.9535853
39.0882727
38.2459632
37.419148
36.6019773
35.7892465
34.9756833
34.1555023
33.3220983
32.4678338
31.5839469
30.6606501
29.6875294
28.6544003
27.5527874
26.3781924
25.1330371
23.8300759
52.2724561
51.4666358
49.8154279
48.1007612
46.5674721
45.1807311
43.9375744
42.8315006
41.8289597
40.896739
40.0132741
39.1645282
38.3403967
37.5334497
36.7378885
35.9484877
35.1598201
34.365722
33.5588611
32.7303576
31.86949
30.9635717
29.998162
28.9578846
27.8281856
26.5984999
25.2668495
23.8465363
52.2567914
51.4517397
49.8031001
48.0927421
46.5652345
45.1857283
43.9512874
42.8554088
41.8645776
40.9456569
40.0771988
39.2453132
38.4400825
37.6542883
36.8823425
36.1191915
35.359477
34.5968985
33.8236226
33.0296724
32.202312
31.3255074
30.3796774
29.3421375
28.1888527
26.8986407
25.4600545
23.8841811
52.2474123
51.4430645
49.7967596
48.0903339
46.5681357
45.1953241
43.9690303
42.8828005
41.9032013
40.9972272
40.1436164
39.3287225
38.542933
37.7793931
37.0329254
36.2989069
35.5723753
34.8472894
34.1157609
33.3671526
32.5870058
31.7558274
30.8479211
29.8307179
28.6654939
27.3119294
25.7376302
23.9452339
52.2429084
51.439203
49.7950018
48.0921337
46.5747664
45.2080904
43.9893342
42.9121318
41.9431622
41.0496065
40.2104585
39.4124038
38.6462534
37.9056811
37.1861498
36.4837843
35.7944508
35.1129426
34.4320485
33.7413368
33.0255182
32.2622897
31.4196998
30.4533135
29.3039703
27.8994134
26.1592627
24.0487683
52.2420056
51.4388834
49.7965426
48.0968399
46.5837961
45.2226474
44.0107378
42.9418092
41.9826876
41.1007808
40.2753912
39.4936099
38.7467792
38.02926
37.3373907
36.6683934
36.0194782
35.3870202
34.7655402
34.1462292
33.5147157
32.8477047
32.108205
31.2391519
30.1572302
28.7483614
26.859803
24.3709433
52.2435732
51.4409634
49.8002275
48.1032701
46.593995
45.2376892
44.0318207
42.9702519
42.0199748
41.1486455
40.3359059
39.569301
38.8407818
38.1455208
37.4809343
36.8456717
36.2388203
35.6591923
35.1043901
34.5692942
34.0434415
33.5063755
32.9195643
32.2125002
31.2653758
29.880943
27.8054086
24.7824606
52.2466337
51.4444493
49.8050489
48.1103802
46.6042577
45.2520227
44.0512616
42.9959585
42.0532733
41.1911098
40.3894512
39.6363066
38.9242613
38.2493568
37.6102051
37.0071098
36.4414625
35.9152998
35.4307416
34.9889524
34.5880032
34.2182367
33.852126
33.421316
32.7701625
31.5280301
29.0673392
23.9874122
52.2503731
51.4485192
49.8101633
48.1172859
46.6136375
45.2646106
44.0678933
43.0175794
42.0809808
41.2262238
40.4336001
39.6915443
38.9932327
38.3355348
37.7182326
37.1433071
36.6145905
36.1377342
35.7203148
35.371912
35.1038847
34.9279594
34.8517759
34.8651899
34.899435
34.6646733
33.2381512
25.7668382
68.5184445
60.1245221
54.0940822
50.6985662
48.1457821
45.9869424
44.2088593
42.7076091
41.3739003
40.1505422
39.008631
37.9286881
36.896614
35.9023532
34.9384271
33.9989959
33.0794108
32.1759539
31.2856474
30.4061108
29.5354542
28.6721979
27.8152097
26.9636553
26.1169586
25.274767
24.4369212
23.6034266
60.8122836
57.7148688
54.1303942
51.2224344
48.7476104
46.5575781
44.6812124
43.0777067
41.6636578
40.3802541
39.193981
38.0816259
37.0254806
36.0126592
35.0338886
34.0822397
33.1523732
32.2401242
31.3422199
30.4560762
29.5796543
28.7113621
27.84998
26.9946054
26.1446066
25.2995858
24.4593453
23.6238566
57.5925873
56.5186628
53.9980549
51.298197
48.9325703
46.8268636
44.9487742
43.3012121
41.8447363
40.5287289
39.3171904
38.1854784
37.1147219
36.0906338
35.102835
34.1436995
33.2074378
32.2895769
31.3866376
30.4958989
29.6152309
28.7429795
27.8778845
27.019018
26.1657363
25.3176387
24.4745321
23.6363981
56.0637771
55.433167
53.4393621
51.049109
48.881924
46.9190409
45.1117748
43.4815252
42.0204598
40.6925779
39.4661242
38.3191339
37.2344982
36.1983592
35.200122
34.2318576
33.2875022
32.3623355
31.4526709
30.555629
29.6689643
28.790942
27.9202503
27.0559357
26.1973502
25.3441074
24.4960435
23.6531804
54.9773296
54.4511548
52.7953624
50.7073251
48.7257346
46.8856662
45.1606312
43.5771259
42.1395661
40.8225473
39.5993266
38.4507265
37.3617554
36.3198782
35.3151794
34.3400992
33.3887868
32.4566216
31.5399441
30.6358678
29.7421294
28.8569787
27.9790996
27.1075503
26.2417144
25.3812566
24.5260822
23.6762966
54.1717489
53.7069918
52.2419007
50.350767
48.5060661
46.7661486
45.1203344
43.5938221
42.1939713
40.9018682
39.6950202
38.5564698
37.472902
36.4331281
35.4281562
34.4510401
33.496357
32.559782
31.6378501
30.7278019
29.8274621
28.9351497
28.0496138
27.1699854
26.2957355
25.4266355
24.5627168
23.7042274
53.5593764
53.1291431
51.7672115
50.002116
48.2633079
46.6086531
45.03378
43.5631049
42.2045521
40.9427152
39.7581456
38.6356643
37.5632611
36.5308575
35.5302972
34.5552177
33.6006166
32.6624773
31.7375568
30.8232553
29.9175189
29.0187691
28.1258548
27.2380161
26.3548525
25.4762882
24.6025334
23.7340383
53.0781517
52.6668648
51.366163
49.6858233
48.0276193
46.4421482
44.9268636
43.5060332
42.1872728
40.9565955
39.7963661
38.692701
37.6345546
36.6126795
35.6195882
34.6494094
33.6974977
32.7600999
31.8341644
30.9172304
30.0073516
29.1030448
28.2032582
27.3073495
26.4150643
25.526509
24.6421141
23.7625847
52.6924661
52.2931711
51.031836
49.4092819
47.8106831
46.2799096
44.8139453
43.4364268
42.1541802
40.953528
39.8177704
38.733871
37.6914551
36.6818638
35.6981082
34.7346997
33.787272
32.8522722
31.9267892
31.0084598
30.0954106
29.1862255
28.2799325
27.375997
26.4743144
25.5751917
24.6793139
23.7876918
52.379567
51.9883762
50.7534876
49.1712006
47.6168868
46.129353
44.7040985
43.3636944
42.1140496
40.941308
39.8291368
38.7649636
37.738828
36.7424512
35.7691809
34.8137933
33.8721123
32.9407123
32.0167608
31.0979382
30.1823965
29.2687461
28.356062
27.4438973
26.5322921
25.6217678
24.7133001
23.8082624
52.1236973
51.7381859
50.5218472
48.9685507
47.4476497
45.9943784
44.6026221
43.2937751
42.0728383
40.9255609
39.835627
38.7906385
37.7808382
36.7981538
35.8361219
34.8896665
33.9547065
33.0278626
32.1063079
31.1876993
30.2701525
29.3522488
28.4330641
27.5122063
26.5898469
25.6667341
24.7441743
23.823975
51.9135826
51.5322098
50.3294092
48.7976357
47.3023814
45.8764505
44.5123454
43.2303465
42.0346005
40.910379
39.8411921
38.8146246
37.8209644
36.8522072
35.9019543
34.9651688