/*--------------------------------*- C++ -*----------------------------------*\
| =========                 |                                                 |
| \\      /  F ield         | foam-extend: Open Source CFD                    |
|  \\    /   O peration     | Version:     4.1                                |
|   \\  /    A nd           | Web:         http://www.foam-extend.org         |
|    \\/     M anipulation  |                                                 |
\*---------------------------------------------------------------------------*/
FoamFile
{
    version     2.0;
    format      ascii;
    class       surfaceScalarField;
    location    "0.4";
    object      phi;
}
// * * * * * * * * * * * * * * * * * * * * * * * * * * * * * * * * * * * * * //

dimensions      [0 3 -1 0 0 0 0];

internalField   nonuniform List<scalar> 
102656
(
0.000395260993
5.30266834e-05
5.17123231e-05
0.000281609514
5.8261302e-05
5.53901769e-05
0.000200388071
4.23600069e-05
3.88614346e-05
0.000148889798
2.7447935e-05
2.40503374e-05
0.000117042613
1.73740061e-05
1.44731778e-05
9.68255089e-05
1.12258494e-05
8.99125396e-06
8.35607652e-05
7.39763393e-06
5.86710904e-06
7.46498922e-05
4.89463034e-06
4.01624211e-06
6.84814046e-05
3.24862356e-06
2.91986377e-06
6.40397601e-05
2.16944564e-06
2.27219871e-06
6.07145965e-05
1.45154983e-06
1.87361395e-06
5.8141427e-05
9.63982356e-07
1.60918759e-06
5.60962397e-05
6.26924249e-07
1.41826373e-06
5.44371452e-05
3.90171192e-07
1.26892423e-06
5.30712808e-05
2.21488309e-07
1.14437729e-06
5.19351176e-05
1.00184273e-07
1.03598024e-06
5.09829114e-05
1.29186121e-08
9.3928903e-07
5.01802714e-05
-4.91878052e-08
8.51829363e-07
4.95003036e-05
-9.21293646e-08
7.72098772e-07
4.89210618e-05
-1.19869845e-07
6.99113249e-07
4.84241047e-05
-1.3517084e-07
6.32129442e-07
4.79936277e-05
-1.40085026e-07
5.70563538e-07
4.76158833e-05
-1.36217382e-07
5.13963171e-07
4.72787912e-05
-1.24887141e-07
4.61980544e-07
4.69716939e-05
-1.0725782e-07
4.14356266e-07
4.66852127e-05
-8.4423664e-08
3.70905967e-07
4.64111669e-05
-5.74593289e-08
3.31506109e-07
-2.74402424e-08
2.96079526e-07
4.61425285e-05
0.000461998917
2.77116041e-05
6.33161611e-05
0.000392853473
5.22457766e-05
7.51609683e-05
0.000323886637
5.01979659e-05
6.11288752e-05
0.000266759197
4.04820972e-05
4.40932758e-05
0.000223839535
3.04896138e-05
2.9804053e-05
0.000193124909
2.23543148e-05
1.95861598e-05
0.000171287811
1.62947527e-05
1.2939978e-05
0.000155545087
1.18563662e-05
8.78098698e-06
0.000143959787
8.61314116e-06
6.22078255e-06
0.00013522034
6.25727643e-06
4.65161683e-06
0.000128455762
4.54666593e-06
3.66946252e-06
0.000123096765
3.2965505e-06
3.02642956e-06
0.000118767958
2.37409058e-06
2.58164315e-06
0.000115216318
1.68567597e-06
2.25613728e-06
0.000112267005
1.16600509e-06
2.00479765e-06
0.000109795583
7.70127934e-07
1.80148167e-06
0.000107710456
4.67291656e-07
1.6307561e-06
0.000105941627
2.36412562e-07
1.48323163e-06
0.000104433692
6.28755601e-08
1.35293318e-06
0.000103141723
-6.37194983e-08
1.23582105e-06
0.000102028417
-1.50923734e-07
1.12906168e-06
0.000101062016
-2.04337301e-07
1.03065616e-06
0.00010021497
-2.28364962e-07
9.39195538e-07
9.94631032e-05
-2.2669961e-07
8.53681384e-07
9.87850616e-05
-2.0263918e-07
7.73424835e-07
9.81619649e-05
-1.59307504e-07
6.97982278e-07
9.75771947e-05
-9.97949572e-08
6.2710741e-07
-2.72318929e-08
5.60710124e-07
9.70162777e-05
0.000447769655
1.52547951e-05
6.4687153e-05
0.000388238216
3.58422775e-05
7.59349371e-05
0.000335580922
4.06675613e-05
6.21876964e-05
0.000291761042
3.76327637e-05
4.66692129e-05
0.000257078106
3.18670873e-05
3.33054611e-05
0.000230707863
2.56775859e-05
2.30469711e-05
0.000210912739
2.01529808e-05
1.5936895e-05
0.000195901781
1.56007163e-05
1.1266608e-05
0.000184288516
1.19724401e-05
8.25396555e-06
0.000175102691
9.13204628e-06
6.31105574e-06
0.000167687472
6.930756e-06
5.03113001e-06
0.00016160141
5.23019585e-06
4.1524179e-06
0.000156542048
3.9140345e-06
3.51941956e-06
0.000152295155
2.89013885e-06
3.04243108e-06
0.000148703986
2.08834033e-06
2.66883584e-06
0.000145650364
1.45687637e-06
2.36687527e-06
0.000143042591
9.584151e-07
2.11665154e-06
0.000140807607
5.6634885e-07
1.90505063e-06
0.000138885802
2.6173642e-07
1.7229455e-06
0.000137227379
3.09916624e-08
1.56371382e-06
0.000135789911
-1.35854898e-07
1.42240099e-06
0.00013453673
-2.4638141e-07
1.2952272e-06
0.000133435662
-3.06630726e-07
1.17933552e-06
0.000132458145
-3.21762323e-07
1.07258038e-06
0.000131578669
-2.9653607e-07
9.73375009e-07
0.000130774417
-2.35637542e-07
8.80582947e-07
0.000130025075
-1.43885409e-07
7.93433442e-07
-2.63427452e-08
7.11449327e-07
0.000129312737
0.000440472488
9.95928346e-06
6.48230233e-05
0.000375873789
2.46436519e-05
7.57973225e-05
0.000324700545
3.07170656e-05
6.11237386e-05
0.000286197069
3.08574007e-05
4.52788375e-05
0.000257839354
2.8110143e-05
3.21146587e-05
0.000237173838
2.41827265e-05
2.21603748e-05
0.000221931113
2.00736233e-05
1.53220823e-05
0.000210342249
1.63069088e-05
1.08826711e-05
0.000201201847
1.30608896e-05
8.05195255e-06
0.000193744027
1.03476045e-05
6.24226222e-06
0.000187499659
8.11819566e-06
5.05692949e-06
0.00018218321
6.30392314e-06
4.24272288e-06
0.000177613649
4.83395174e-06
3.64964505e-06
0.000173666746
3.64397315e-06
3.19307053e-06
0.000170249711
2.67976951e-06
2.82560655e-06
0.000167288376
1.89794482e-06
2.52026796e-06
0.00016472067
1.26506124e-06
2.26106118e-06
0.000162493203
7.56029811e-07
2.03778805e-06
0.000160559291
3.523266e-07
1.84332313e-06
0.000158877651
4.03527469e-08
1.67228001e-06
0.000157411411
-1.89991305e-07
1.52037711e-06
0.000156127381
-3.46469052e-07
1.3841192e-06
0.000154995456
-4.35364613e-07
1.26065949e-06
0.000153988194
-4.62192058e-07
1.14769204e-06
0.000153080531
-4.3225667e-07
1.04338486e-06
0.000152249622
-3.51052049e-07
9.46323648e-07
0.000151474798
-2.2452052e-07
8.55459607e-07
-5.91904145e-08
7.70057971e-07
0.000150737588
0.000437878012
7.06299988e-06
6.50182711e-05
0.000368456659
1.78000229e-05
7.62649804e-05
0.000314729524
2.34042535e-05
6.10399463e-05
0.000276413109
2.47886188e-05
4.43851955e-05
0.000250111992
2.36936664e-05
3.07175934e-05
0.000232367397
2.13268349e-05
2.06004858e-05
0.00022018236
1.84533433e-05
1.38053165e-05
0.000211415612
1.5557771e-05
9.51588613e-06
0.00020471745
1.28823722e-05
6.87668019e-06
0.000199291934
1.05140308e-05
5.25909023e-06
0.000194695874
8.466204e-06
4.24805311e-06
0.000190694736
6.72052835e-06
3.5845334e-06
0.000187165845
5.24537526e-06
3.1174681e-06
0.00018404089
4.00550571e-06
2.76342338e-06
0.000181275714
2.9673176e-06
2.47762922e-06
0.000178835884
2.10139924e-06
2.23637679e-06
0.000176690497
1.38343161e-06
2.02701694e-06
0.000174809963
7.9412347e-07
1.84244119e-06
0.000173165461
3.18626944e-07
1.67820223e-06
0.000171728983
-5.42733254e-08
1.53110432e-06
0.000170473485
-3.33085647e-07
1.39859296e-06
0.000169372985
-5.24456741e-07
1.27848778e-06
0.000168402604
-6.3388482e-07
1.16890186e-06
0.000167538655
-6.66435422e-07
1.06819207e-06
0.000166758741
-6.27304587e-07
9.74962594e-07
0.000166041878
-5.22253748e-07
8.88064327e-07
0.000165368682
-3.57912356e-07
8.06588582e-07
-1.41937699e-07
7.29853565e-07
0.000164721576
0.000436606059
5.27610228e-06
6.51808378e-05
0.000364323574
1.34341422e-05
7.66483651e-05
0.000308253947
1.82413041e-05
6.1232575e-05
0.000268853111
2.0067054e-05
4.41224e-05
0.00024260973
1.98818348e-05
3.00552124e-05
0.000225727779
1.85104331e-05
1.96983523e-05
0.000214858311
1.65313837e-05
1.27914281e-05
0.00020759085
1.43447738e-05
8.4804584e-06
0.000202405341
1.21881361e-05
5.87974669e-06
0.000198409509
1.017732e-05
4.33254263e-06
0.000195112165
8.35924922e-06
3.40430003e-06
0.000192261023
6.74587086e-06
2.82580008e-06
0.000189734112
5.33154415e-06
2.44074353e-06
0.000187474411
4.10245937e-06
2.1627479e-06
0.000185454121
3.04202961e-06
1.94557821e-06
0.000183656519
2.13388763e-06
1.76511399e-06
0.000182067567
1.36342718e-06
1.60895667e-06
0.000180672601
7.1845563e-07
1.4706333e-06
0.0001794554
1.89293726e-07
1.34653412e-06
0.000178398263
-2.31504336e-07
1.23436779e-06
0.000177482352
-5.49639495e-07
1.13246566e-06
0.000176688014
-7.6958121e-07
1.03946187e-06
0.00017599519
-8.95217966e-07
9.54156949e-07
0.000175383763
-9.3048091e-07
8.7547236e-07
0.000174833902
-8.79898222e-07
8.02454399e-07
0.000174326429
-7.49061653e-07
7.34280739e-07
0.000173843218
-5.44968229e-07
6.70267295e-07
-2.76202666e-07
6.09870749e-07
0.000173367612
0.00043588421
4.0926948e-06
6.52991969e-05
0.000361910923
1.04686662e-05
7.6938762e-05
0.000304147116
1.45077878e-05
6.14973233e-05
0.000263618214
1.64108843e-05
4.41850705e-05
0.000236883863
1.67264672e-05
2.98897192e-05
0.000220032587
1.59992374e-05
1.93624719e-05
0.000209561051
1.46579362e-05
1.23449831e-05
0.000202916755
1.30197477e-05
7.9693236e-06
0.000198472024
1.12937901e-05
5.33907759e-06
0.000195262311
9.60106424e-06
3.78596954e-06
0.000192750513
8.00519911e-06
2.86584902e-06
0.000190655984
6.53636987e-06
2.30403048e-06
0.000188840393
5.20590259e-06
1.94123265e-06
0.000187238978
4.01492531e-06
1.68894979e-06
0.000185822206
2.95951716e-06
1.49928388e-06
0.000184575454
2.03375217e-06
1.34688742e-06
0.000183488912
1.23146578e-06
1.21850287e-06
0.00018255306
5.47216853e-07
1.10709022e-06
0.00018175692
-2.32722052e-08
1.00870559e-06
0.000181087626
-4.83151219e-07
9.20940565e-07
0.000180530467
-8.34594229e-07
8.42113747e-07
0.000180069112
-1.07918014e-06
7.70953472e-07
0.000179685997
-1.21849004e-06
7.06386721e-07
0.000179362719
-1.25468244e-06
6.47478985e-07
0.00017908048
-1.19106979e-06
5.9341052e-07
0.000178820594
-1.03264175e-06
5.43466244e-07
0.000178565061
-7.86467738e-07
4.97032798e-07
-4.61916992e-07
4.5359725e-07
0.000178297178
0.000435447847
3.25404561e-06
6.53908015e-05
0.000360404112
8.34289399e-06
7.71695074e-05
0.000301440544
1.1718511e-05
6.17528443e-05
0.00025997684
1.35267712e-05
4.43478168e-05
0.00023268329
1.40954311e-05
2.99245863e-05
0.000215607201
1.37797359e-05
1.92955901e-05
0.000205165682
1.28892957e-05
1.22101606e-05
0.0001987273
1.16684204e-05
7.7897097e-06
0.000194599931
1.02911403e-05
5.13002003e-06
0.000191773182
8.87064267e-06
3.55717116e-06
0.000189679453
7.47602909e-06
2.62289951e-06
0.00018801768
6.14741856e-06
2.05072503e-06
0.000186635636
4.90694671e-06
1.68099948e-06
0.000185459391
3.76607215e-06
1.42509815e-06
0.000184453872
2.73017946e-06
1.23485636e-06
0.00018360162
1.80146082e-06
1.08454278e-06
0.000182891888
9.80729291e-07
9.60468139e-07
0.00018231542
2.68524547e-07
8.55159161e-07
0.000181862199
-3.34334751e-07
7.64283291e-07
0.000181520495
-8.26557776e-07
6.8510973e-07
0.000181276571
-1.20639446e-06
6.15723324e-07
0.000181114787
-1.47206447e-06
5.54668293e-07
0.000181017809
-1.62225822e-06
5.00746363e-07
0.000180966946
-1.65676019e-06
4.5294018e-07
0.000180942626
-1.57711898e-06
4.10369162e-07
0.000180925001
-1.38728226e-06
3.72265638e-07
0.000180894685
-1.09410773e-06
3.37956577e-07
-7.0765654e-07
3.06852185e-07
0.000180833573
0.000435162843
2.62923989e-06
6.54619626e-05
0.000359406051
6.75147302e-06
7.73482131e-05
0.000299589428
9.56993946e-06
6.19651944e-05
0.000257391411
1.12083595e-05
4.45164286e-05
0.000229587878
1.1877792e-05
3.00211729e-05
0.000212222754
1.18118303e-05
1.93330302e-05
0.000201672072
1.1230525e-05
1.2209453e-05
0.000195257409
1.03183308e-05
7.76475344e-06
0.000191244975
9.21518791e-06
5.08838661e-06
0.000188592962
8.02030582e-06
3.50235088e-06
0.00018671239
6.80081378e-06
2.55578713e-06
0.000185287932
5.6005453e-06
1.97133093e-06
0.00018415761
4.44763849e-06
1.58963022e-06
0.000183240784
3.36023964e-06
1.32265831e-06
0.000182497913
2.35034376e-06
1.1227063e-06
0.000181908742
1.42634105e-06
9.64290304e-07
0.000181460934
5.94733565e-07
8.33802724e-07
0.000181144459
-1.3873802e-07
7.23736896e-07
0.000180948949
-7.68506711e-07
6.29681417e-07
0.00018086244
-1.28880504e-06
5.48754864e-07
0.000180870877
-1.69376559e-06
4.78933656e-07
0.000180957958
-1.9777913e-06
4.18646412e-07
0.000181105206
-2.13611077e-06
3.66604225e-07
0.000181292247
-2.16551572e-06
3.21714337e-07
0.000181497301
-2.06520245e-06
2.83029987e-07
0.0001816979
-1.83760563e-06
2.49724195e-07
0.000181871825
-1.48908576e-06
2.21053873e-07
-1.03035157e-06
1.96336142e-07
0.000181998184
0.000434966342
2.14597864e-06
6.55169196e-05
0.000358715273
5.5166586e-06
7.74858834e-05
0.000298281712
7.86855989e-06
6.21349406e-05
0.000255513169
9.31118366e-06
4.46657195e-05
0.00022727228
9.99038938e-06
3.0128292e-05
0.000209617393
1.00630214e-05
1.94036964e-05
0.000198906337
9.6847037e-06
1.22568773e-05
0.000192433226
8.99295421e-06
7.79848865e-06
0.00018843705
8.09786543e-06
5.11349887e-06
0.000185853722
7.08292828e-06
3.52070592e-06
0.000184078181
6.00916763e-06
2.56718744e-06
0.000182784073
4.91987844e-06
1.97477403e-06
0.000181801902
3.84556125e-06
1.58424825e-06
0.000181045944
2.8081272e-06
1.3080699e-06
0.00018047335
1.82393753e-06
1.09899955e-06
0.000180061853
9.05937021e-07
9.3189945e-07
0.000179798007
6.51928064e-08
7.9338639e-07
0.000179671241
-6.88089109e-07
6.76116369e-07
0.000179670871
-1.34384614e-06
5.75709475e-07
0.000179784603
-1.89186795e-06
4.89329793e-07
0.000179997776
-2.32190052e-06
4.14962445e-07
0.000180292971
-2.62402383e-06
3.5103705e-07
0.000180649927
-2.78934437e-06
2.96277136e-07
0.000181045734
-2.81092471e-06
2.49602221e-07
0.00018145534
-2.68487375e-06
2.10065784e-07
0.000181852401
-2.41148656e-06
1.76819854e-07
0.000182210471
-1.99625819e-06
1.49103414e-07
-1.45056355e-06
1.26225485e-07
0.000182504458
0.000434825626
1.76085726e-06
6.55594957e-05
0.000358219378
4.53036026e-06
7.75925464e-05
0.000297329519
6.48926143e-06
6.2269158e-05
0.00025411648
7.73397247e-06
4.47902513e-05
0.00022550943
8.3707592e-06
3.02266807e-05
0.000207586602
8.50759085e-06
1.94782588e-05
0.000196700494
8.25477622e-06
1.23160362e-05
0.000190130378
7.7140947e-06
7.84897562e-06
0.000186098271
6.9709005e-06
5.15907212e-06
0.000183524851
6.09359861e-06
3.56274956e-06
0.000181793177
5.13533343e-06
2.60550883e-06
0.000180568252
4.13630725e-06
2.00849516e-06
0.000179674487
3.12684983e-06
1.61247573e-06
0.000179022016
2.13041437e-06
1.33018344e-06
0.000178565361
1.16590941e-06
1.11468232e-06
0.000178280783
2.49440234e-07
9.41074254e-07
0.00017815419
-6.04391315e-07
7.96176664e-07
0.000178174843
-1.38147943e-06
6.72737031e-07
0.000178332097
-2.06754945e-06
5.66449218e-07
0.000178613587
-2.6479158e-06
4.74557119e-07
0.000179004149
-3.10756322e-06
3.95100492e-07
0.000179485167
-3.43161302e-06
3.2657108e-07
0.000180034264
-3.60617491e-06
2.67733345e-07
0.000180625348
-3.61955932e-06
2.17551215e-07
0.000181229099
-3.46376661e-06
1.7514147e-07
0.000181813983
-3.13609629e-06
1.39726572e-07
0.000182347775
-2.64064949e-06
1.10599442e-07
-1.98942492e-06
8.70901837e-08
0.000182799547
0.000434721494
1.44664336e-06
6.55927204e-05
0.000357851655
3.72435306e-06
7.76758467e-05
0.000296616298
5.34948807e-06
6.23751312e-05
0.000253053507
6.40517941e-06
4.48915848e-05
0.000224142025
6.97127709e-06
3.03109651e-05
0.000205979585
7.12372201e-06
1.95463093e-05
0.000194919945
6.94112054e-06
1.2373296e-05
0.000188235409
6.49849099e-06
7.90014023e-06
0.000184138102
5.86128567e-06
5.20692089e-06
0.000181538881
5.08444919e-06
3.60837053e-06
0.000179812528
4.21285547e-06
2.64883063e-06
0.000178617643
3.28226922e-06
2.04892239e-06
0.000177773927
2.32120804e-06
1.64935753e-06
0.000177188266
1.35305572e-06
1.36301908e-06
0.000176813185
3.97841059e-07
1.14314845e-06
0.000176623972
-5.26364252e-07
9.65017238e-07
0.000176606325
-1.40226727e-06
8.1552211e-07
0.00017674982
-2.21241087e-06
6.87435963e-07
0.000177044303
-2.93857012e-06
5.76537964e-07
0.000177477723
-3.56144841e-06
4.80111767e-07
0.000178034704
-4.06077318e-06
3.9622926e-07
0.000178695516
-4.41585366e-06
3.2342826e-07
0.000179435441
-4.60664304e-06
2.60543484e-07
0.000180224573
-4.61531612e-06
2.06625046e-07
0.000181028226
-4.42830078e-06
1.60880886e-07
0.000181808086
-4.03858386e-06
1.22628085e-07
0.00018252417
-3.44798161e-06
9.12478748e-08
-2.66893204e-06
6.61380648e-08
0.00018313754
0.000434642108
1.18561617e-06
6.56189196e-05
0.000357570831
3.05400031e-06
7.77416312e-05
0.000296067524
4.39344601e-06
6.245935e-05
0.000252225383
5.27371748e-06
4.4973604e-05
0.000223059917
5.75542375e-06
3.038132e-05
0.000204685837
5.89263881e-06
1.96051636e-05
0.000193461076
5.74161497e-06
1.2424266e-05
0.000186655586
5.3574526e-06
7.94652871e-06
0.000182476259
4.789824e-06
5.2507882e-06
0.000179828056
4.08208187e-06
3.65057006e-06
0.000178080413
3.27114411e-06
2.68935358e-06
0.000176887568
2.3877489e-06
2.0873649e-06
0.000176065928
1.45758478e-06
1.68526234e-06
0.000175520151
5.02813898e-07
1.39601885e-06
0.000175201533
-4.56558871e-07
1.17301774e-06
0.000175085038
-1.40147307e-06
9.91603457e-07
0.000175156824
-2.31271955e-06
8.38666009e-07
0.000175407423
-3.17005366e-06
7.0704345e-07
0.000175827825
-3.95149714e-06
5.9252439e-07
0.000176406945
-4.63296512e-06
4.92396622e-07
0.000177129734
-5.18831959e-06
4.04756469e-07
0.000177975672
-5.58997543e-06
3.2818391e-07
0.000178917631
-5.8101777e-06
2.61575795e-07
0.000179921275
-5.82303014e-06
2.04070267e-07
0.000180945243
-5.60725407e-06
1.54984556e-07
0.000181942398
-5.14949959e-06
1.13761426e-07
0.000182862308
-4.44780453e-06
7.99124692e-08
-3.51454655e-06
5.29507531e-08
0.000183654972
0.000434579887
9.6586738e-07
6.56398624e-05
0.000357350364
2.48920021e-06
7.77943242e-05
0.000295634128
3.58261633e-06
6.25270676e-05
0.000251564753
4.30277687e-06
4.50403159e-05
0.000222185251
4.69525922e-06
3.04396675e-05
0.00020362434
4.79849785e-06
1.96550522e-05
0.000192245042
4.65270624e-06
1.24682064e-05
0.000185317478
4.29810856e-06
7.98690757e-06
0.000181046245
3.77189835e-06
5.28915853e-06
0.000178333121
3.10760199e-06
3.68760327e-06
0.000176544413
2.3347906e-06
2.72506047e-06
0.00017533172
1.47899355e-06
2.12144831e-06
0.000174509488
5.62440733e-07
1.71737576e-06
0.00017398119
-3.94798311e-07
1.4259094e-06
0.000173697795
-1.37366836e-06
1.20050446e-06
0.000173634835
-2.35499927e-06
1.01648527e-06
0.000173779788
-3.31847417e-06
8.60802009e-07
0.000174125063
-4.24162171e-06
7.26292278e-07
0.000174663809
-5.09896918e-06
6.08725328e-07
0.000175386947
-5.86148186e-06
5.05379181e-07
0.000176280725
-6.49645625e-06
4.14357718e-07
0.000177324554
-6.9680744e-06
3.34270044e-07
0.000178489147
-7.23884443e-06
2.64073695e-07
0.000179735242
-7.27212705e-06
2.03001808e-07
0.000181013313
-7.03583271e-06
1.50507924e-07
0.000182264763
-6.50715523e-06
1.06205994e-07
0.000183425013
-5.67785126e-06
6.97963222e-08
-4.55911937e-06
4.09676478e-08
0.000184428618
0.000434529809
7.79179617e-07
6.56568795e-05
0.000357172636
2.00914138e-06
7.78372329e-05
0.000295283003
2.88990173e-06
6.25823498e-05
0.000251024999
3.46559538e-06
4.50951859e-05
0.000221462506
3.76947801e-06
3.04882745e-05
0.000202735509
3.82827937e-06
1.96972158e-05
0.000191212036
3.67042139e-06
1.25057578e-05
0.000184163627
3.32488211e-06
8.02163424e-06
0.000179794325
2.81893561e-06
5.32226408e-06
0.000177004501
2.17779872e-06
3.71962718e-06
0.000175158935
1.42433629e-06
2.75601916e-06
0.00017390794
5.78884915e-07
2.1511038e-06
0.000173065111
-3.40213529e-07
1.74548239e-06
0.00017253374
-1.31569462e-06
1.45226778e-06
0.000172265475
-2.33028231e-06
1.22487778e-06
0.000172237394
-3.36561805e-06
1.03869961e-06
0.000172439364
-4.40113986e-06
8.80694976e-07
0.00017286694
-5.41286196e-06
7.43663944e-07
0.000173516862
-6.37223643e-06
6.23345135e-07
0.000174383625
-7.24523684e-06
5.16991804e-07
0.000175456365
-7.99189073e-06
4.2269444e-07
0.000176715797
-8.56658456e-06
3.39077966e-07
0.000178131301
-8.91951096e-06
2.65162061e-07
0.000179658535
-8.99965611e-06
2.00294945e-07
0.000181238225
-8.75962896e-06
1.44107181e-07
0.000182796973
-8.16235556e-06
9.64518381e-08
0.000184250933
-7.18912188e-06
5.73108251e-08
-5.84765856e-06
2.66510734e-08
0.000185512821
0.000434488456
6.19761879e-07
6.56709623e-05
0.00035702566
1.59912752e-06
7.78728116e-05
0.000294991369
2.29591547e-06
6.26282789e-05
0.000250573405
2.74255033e-06
4.51410093e-05
0.000220851766
2.96189543e-06
3.0529222e-05
0.000201975392
2.97156542e-06
1.97330877e-05
0.000190316794
2.79106373e-06
1.25379558e-05
0.000183149408
2.44071482e-06
8.05155213e-06
0.000178677661
1.93981407e-06
5.35086776e-06
0.000175801613
1.30648103e-06
3.74736509e-06
0.000173885583
5.57458043e-07
2.78290833e-06
0.000172579535
-2.92057723e-07
2.1769902e-06
0.000171697126
-1.22798806e-06
1.77018304e-06
0.000171142405
-2.23649039e-06
1.47551659e-06
0.000170868596
-3.30294274e-06
1.24646862e-06
0.000170855342
-4.41082759e-06
1.05846375e-06
0.000171096189
-5.54040444e-06
8.98416605e-07
0.000171591406
-6.66716835e-06
7.5908917e-07
0.000172343242
-7.76023673e-06
6.36164369e-07
0.000173352015
-8.78085023e-06
5.2683966e-07
0.000174612191
-9.68124135e-06
4.29174468e-07
0.000176108149
-1.04043411e-05
3.41798235e-07
0.000177809736
-1.08848892e-05
2.63791234e-07
0.000179668105
-1.10526653e-05
1.94640873e-07
0.0001816128
-1.08385406e-05
1.34216243e-07
0.000183551491
-1.01837638e-05
8.271787e-08
0.000185373937
-9.05213409e-06
4.0565843e-08
-7.44342022e-06
8.18203387e-09
0.000186961517
0.000434453464
4.83454207e-07
6.56828441e-05
0.000356901138
1.24858395e-06
7.79028712e-05
0.000294743321
1.78657587e-06
6.26671587e-05
0.000250186785
2.11913571e-06
4.5179951e-05
0.0002203242
2.26024711e-06
3.05642335e-05
0.000201311585
2.2202085e-06
1.9763972e-05
0.000189525227
2.01158761e-06
1.25658332e-05
0.00018224048
1.64790908e-06
8.07755236e-06
0.00017766257
1.14192915e-06
5.37579435e-06
0.000174691828
5.0562154e-07
3.77160048e-06
0.000172692695
-2.49935858e-07
2.80652654e-06
0.000171315409
-1.11467626e-06
2.19990437e-06
0.000170374389
-2.07909413e-06
1.79212559e-06
0.000169775102
-3.13346257e-06
1.49625826e-06
0.00016947312
-4.26680477e-06
1.26584427e-06
0.000169451677
-5.4656472e-06
1.0762623e-06
0.000169709377
-6.71249561e-06
9.14390146e-07
0.000170253067
-7.98377087e-06
7.72912227e-07
0.000171092946
-9.24754037e-06
6.47424593e-07
0.000172238227
-1.04611758e-05
5.35044583e-07
0.0001736923
-1.15690844e-05
4.33770503e-07
0.00017544702
-1.25012737e-05
3.42212284e-07
0.000177476101
-1.31734753e-05
2.59505219e-07
0.000179728178
-1.34900488e-05
1.85306816e-07
0.000182120866
-1.33510439e-05
1.19815441e-07
0.000184538017
-1.26646674e-05
6.37526742e-08
0.000186833098
-1.13654577e-05
1.8242389e-08
-9.4365909e-06
-1.55491255e-08
0.000188841817
0.000434423182
3.67211168e-07
6.56930623e-05
0.000356793273
9.49756644e-07
7.79287376e-05
0.000294527675
1.35148703e-06
6.27006878e-05
0.000249848657
1.58451064e-06
4.52136435e-05
0.000219859022
1.65522285e-06
3.05946603e-05
0.000200720346
1.56794216e-06
1.97909419e-05
0.000188811947
1.32971237e-06
1.25902735e-05
0.000181410849
9.48596056e-07
8.10040993e-06
0.000176723126
4.31897994e-07
5.39775379e-06
0.000173649536
-2.13854468e-07
3.79306524e-06
0.000171554887
-9.82913489e-07
2.82762688e-06
0.000170090067
-1.87029431e-06
2.22043731e-06
0.000169070551
-2.87143937e-06
1.81186083e-06
0.000168403566
-3.98152638e-06
1.5150479e-06
0.000168047625
-5.19436286e-06
1.28349877e-06
0.000167990499
-6.50107883e-06
1.09255726e-06
0.000168237225
-7.88824084e-06
9.29018875e-07
0.000168803214
-9.33522638e-06
7.85466296e-07
0.000169709591
-1.08112948e-05
6.57377595e-07
0.000170978507
-1.2271838e-05
5.41746392e-07
0.000172627375
-1.36544151e-05
4.36462939e-07
0.000174661436
-1.4875414e-05
3.40079214e-07
0.000177064229
-1.58280411e-05
2.51772587e-07
0.000179786453
-1.63836841e-05
1.71411263e-07
0.000182734819
-1.63990687e-05
9.96589721e-08
0.000185764189
-1.57320725e-05
3.80353485e-08
0.00018867815
-1.42682128e-05
-1.12072324e-08
-1.1957552e-05
-4.56139713e-08
0.000191244725
0.000434396454
2.68751904e-07
6.57020057e-05
0.000356698016
6.96827712e-07
7.79513685e-05
0.000294336596
9.82809265e-07
6.2730099e-05
0.000249547392
1.13042854e-06
4.52432872e-05
0.000219441424
1.13967109e-06
3.06215195e-05
0.000200184592
1.00994741e-06
1.98148266e-05
0.000188158502
7.43831388e-07
1.26119703e-05
0.000180641435
3.44936748e-07
8.1207257e-06
0.000175840081
-1.8411797e-07
5.41736934e-06
0.0001726555
-8.41688079e-07
3.81241457e-06
0.000170452882
-1.62697346e-06
2.84667716e-06
0.000168883692
-2.54011373e-06
2.23900882e-06
0.000167764375
-3.58196724e-06
1.82984485e-06
0.000167003993
-4.7534336e-06
1.53228775e-06
0.000166564257
-6.05442933e-06
1.29980306e-06
0.000166438041
-7.48252476e-06
1.10766136e-06
0.000166637929
-9.03068598e-06
9.42556819e-07
0.000167190072
-1.06843037e-05
7.96934013e-07
0.000168129875
-1.2417199e-05
6.66101738e-07
0.000169497377
-1.41862074e-05
5.46866799e-07
0.000171331012
-1.59249924e-05
4.36942644e-07
0.000173658242
-1.75374051e-05
3.34762031e-07
0.000176482378
-1.88916972e-05
2.39519285e-07
0.000179765366
-1.98180252e-05
1.51353632e-07
0.000183408003
-2.01133258e-05
7.16188621e-08
0.000187232117
-1.95592704e-05
3.08391818e-09
0.000190973247
-1.79592201e-05
-5.01237513e-08
-1.51984398e-05
-8.32182765e-08
0.000194297353
0.000434372491
1.86312619e-07
6.57099492e-05
0.00035661259
4.85288399e-07
7.79714418e-05
0.000294164696
6.74439346e-07
6.27562642e-05
0.000249274972
7.50416643e-07
4.52697369e-05
0.000219061175
7.07923989e-07
3.06455438e-05
0.000199692498
5.42395086e-07
1.98362297e-05
0.0001875521
2.52809959e-07
1.2631419e-05
0.000179919023
-1.61006476e-07
8.13901954e-06
0.000175000151
-7.0044143e-07
5.43519504e-06
0.000171696567
-1.36809302e-06
3.82998867e-06
0.000169373488
-2.16785374e-06
2.86395838e-06
0.000167682479
-3.10507621e-06
2.25597102e-06
0.000166440543
-4.18641248e-06
1.84638037e-06
0.000165558197
-5.41933074e-06
1.54824246e-06
0.000165000084
-6.81127921e-06
1.314963e-06
0.000164764166
-8.36833064e-06
1.1217234e-06
0.000164871298
-1.00928965e-05
9.55078656e-07
0.000165360124
-1.19804108e-05
8.07280548e-07
0.000166283759
-1.40142272e-05
6.73394162e-07
0.000167706032
-1.61584246e-05
5.49944467e-07
0.000169695408
-1.83487282e-05
4.34359555e-07
0.00017231426
-2.04811062e-05
3.24849368e-07
0.00017560159
-2.23995999e-05
2.20572401e-07
0.000179547624
-2.38860845e-05
1.22024293e-07
0.000184060397
-2.46577187e-05
3.16194913e-08
0.000188929799
-2.43828084e-05
-4.58656075e-08
0.000193800559
-2.27272181e-05
-1.02761916e-07
-1.94501838e-05
-1.29691021e-07
0.000198181993
0.000434350769
1.18463376e-07
6.57170808e-05
0.000356535163
3.11475107e-07
7.79894212e-05
0.000294008434
4.21392789e-07
6.27797762e-05
0.000249026154
4.39124693e-07
4.52935722e-05
0.000218711639
3.55208563e-07
3.06672309e-05
0.000199236451
1.62033822e-07
1.98555483e-05
0.000186984687
-1.44472376e-07
1.26490468e-05
0.000179235547
-5.67620796e-07
8.15575348e-06
0.00017419562
-1.11197028e-06
5.45145569e-06
0.000170765502
-1.78391721e-06
3.84594085e-06
0.000168309726
-2.59180693e-06
2.87972922e-06
0.000166479215
-3.54610741e-06
2.2715406e-06
0.000165090682
-4.65952147e-06
1.8616424e-06
0.000164055132
-5.94681548e-06
1.56303402e-06
0.000163339131
-7.42432418e-06
1.32904535e-06
0.000162944975
-9.10890725e-06
1.13473292e-06
0.000162901558
-1.1015939e-05
9.66459554e-07
0.000163260781
-1.31558384e-05
8.16204394e-07
0.000164096305
-1.55284223e-05
6.7867195e-07
0.000165502058
-1.81141286e-05
5.49950745e-07
0.000167587527
-2.08611951e-05
4.26998632e-07
0.000170467116
-2.36683147e-05
3.07618572e-07
0.000174239918
-2.63632302e-05
1.90828e-07
0.000178954272
-2.86780203e-05
7.75812605e-08
0.000184554471
-3.02297508e-05
-2.81679779e-08
0.000190813385
-3.05233222e-05
-1.18401902e-07
0.000197261807
-2.89969043e-05
-1.78737515e-07
-2.516632e-05
-1.90755709e-07
0.000203168697
0.000434330979
6.39612717e-08
6.57235236e-05
0.000356464634
1.7221491e-07
7.8005606e-05
0.000293865693
2.19326507e-07
6.28010086e-05
0.000248797872
1.9179209e-07
4.53151542e-05
0.000218389006
7.71976777e-08
3.06868765e-05
0.000198812359
-1.34441961e-07
1.98731231e-05
0.000186452309
-4.49650002e-07
1.2665227e-05
0.000178587601
-8.73958714e-07
8.17104596e-06
0.000173424003
-1.41456511e-06
5.46619218e-06
0.000169860854
-2.08121512e-06
3.86044611e-06
0.000167261118
-2.88620858e-06
2.8941369e-06
0.000165274023
-3.84483778e-06
2.28582402e-06
0.000163714656
-4.97584895e-06
1.87569425e-06
0.000162492892
-6.3017266e-06
1.57667558e-06
0.000161575347
-7.8487718e-06
1.34199222e-06
0.000160966648
-9.64673526e-06
1.14652727e-06
0.000160701877
-1.17275397e-05
9.76370869e-07
0.000160845354
-1.41224145e-05
8.23100301e-07
0.000161492486
-1.685642e-05
6.80866137e-07
0.000162772264
-1.99389564e-05
5.45049425e-07
0.000164846986
-2.33477073e-05
4.11790273e-07
0.000167905497
-2.70049551e-05
2.78129021e-07
0.000172142369
-3.07428432e-05
1.42739735e-07
0.000177713538
-3.42564741e-05
7.28349442e-09
0.00018465841
-3.70532262e-05
-1.21398509e-07
0.000192779235
-3.84144498e-05
-2.29699554e-07
0.000201482935
-3.74096786e-05
-2.90927493e-07
-3.30868733e-05
-2.73978277e-07
0.000209677464
0.000434313009
2.15770731e-08
6.57293754e-05
0.000356400492
6.45540871e-08
7.80201786e-05
0.000293735468
6.41944295e-08
6.2820157e-05
0.000248588734
3.87034163e-09
4.53346564e-05
0.000218091853
-1.30669037e-07
3.07047472e-05
0.000198419101
-3.50923867e-07
1.98892344e-05
0.000185954536
-6.65065937e-07
1.26799805e-05
0.000177975969
-1.08023462e-06
8.18484315e-06
0.00017268767
-1.60576975e-06
5.4795026e-06
0.000168986873
-2.25401396e-06
3.87359513e-06
0.000166233964
-3.0405368e-06
2.9072364e-06
0.000164075133
-3.98485156e-06
2.29884433e-06
0.000162322067
-5.11130066e-06
1.88851778e-06
0.000160881191
-6.44994376e-06
1.58909235e-06
0.000159716237
-8.03746398e-06
1.35364658e-06
0.000158830585
-9.91790137e-06
1.15681822e-06
0.000158261523
-1.21427775e-05
9.84299346e-07
0.000158081935
-1.47698809e-05
8.27055581e-07
0.000158406638
-1.78594717e-05
6.78349097e-07
0.000159401171
-2.14658372e-05
5.32347421e-07
0.000161290488
-2.56206953e-05
3.83670365e-07
0.0001643622
-3.03044127e-05
2.27744701e-07
0.000168953921
-3.53966764e-05
6.21106119e-08
0.000175409496
-4.06013222e-05
-1.10727858e-07
0.000183978401
-4.5344079e-05
-2.78053924e-07
0.000194616657
-4.8639404e-05
-4.13304652e-07
0.000206659494
-4.89942706e-05
-4.58248546e-07
-4.45251009e-05
-3.70503361e-07
0.000218468221
0.000434296823
-9.76759254e-09