/*--------------------------------*- C++ -*----------------------------------*\
| =========                 |                                                 |
| \\      /  F ield         | foam-extend: Open Source CFD                    |
|  \\    /   O peration     | Version:     4.1                                |
|   \\  /    A nd           | Web:         http://www.foam-extend.org         |
|    \\/     M anipulation  |                                                 |
\*---------------------------------------------------------------------------*/
FoamFile
{
    version     2.0;
    format      ascii;
    class       volScalarField;
    location    "0.4";
    object      rAU;
}
// * * * * * * * * * * * * * * * * * * * * * * * * * * * * * * * * * * * * * //

dimensions      [0 0 1 0 0 0 0];

internalField   nonuniform List<scalar> 
35840
(
0.000714285797
0.00083663765
0.000924548635
0.000999612952
0.0010538644
0.00109046353
0.00111504626
0.00113178677
0.00114331794
0.00115143919
0.00115735903
0.00116183114
0.00116531599
0.00116810107
0.00117037054
0.00117224589
0.00117381081
0.00117505806
0.00117610972
0.00117701443
0.00117779808
0.0011784829
0.00117908825
0.00117963113
0.00118012651
0.00118058757
0.00118102574
0.00118145088
0.000739083796
0.000819497593
0.000880892058
0.000951172735
0.00101612368
0.00106944538
0.00111046827
0.00114131723
0.00116442701
0.00118185626
0.00119521616
0.00120566756
0.00121400574
0.00122077308
0.00122634393
0.00123098069
0.00123487161
0.00123808087
0.00124079982
0.00124302902
0.00124489506
0.00124654155
0.00124800928
0.00124933417
0.00125054789
0.00125167831
0.00125274971
0.00125378293
0.000753175677
0.000833322877
0.000878398428
0.000929314351
0.000978234726
0.00102100093
0.00105596518
0.00108369712
0.00110556797
0.00112291061
0.00113682116
0.00114813218
0.0011574468
0.0011651997
0.00117170863
0.00117720957
0.00118188104
0.00118586123
0.00118925976
0.0011920753
0.00119424467
0.00119614208
0.00119785316
0.00119941509
0.00120086097
0.00120221999
0.00120351755
0.00120477536
0.000760309018
0.000850112873
0.000895623422
0.000941324966
0.000982257523
0.00101676087
0.0010445774
0.00106663306
0.00108423192
0.0010985021
0.00111028365
0.00112016574
0.00112855157
0.00113572212
0.001141882
0.00114718699
0.0011517602
0.00115570193
0.00115909597
0.00116201378
0.00116407543
0.00116585524
0.00116748419
0.00116899454
0.0011704156
0.00117177352
0.00117309103
0.0011743873
0.00076338257
0.000860199326
0.000909774878
0.000956401551
0.000995498419
0.00102638524
0.00104993609
0.00106782086
0.001081697
0.00109282313
0.00110204324
0.00110988515
0.00111666726
0.0011225842
0.00112776292
0.00113229434
0.00113624988
0.00113968978
0.00114266721
0.00114515894
0.00114673489
0.00114813884
0.00114944967
0.00115069286
0.00115189242
0.0011530701
0.00115424479
0.00115543205
0.000765074136
0.000866246644
0.000919348295
0.00096801537
0.00100751069
0.0010374147
0.00105912151
0.00107479141
0.00108640208
0.00109539246
0.00110269371
0.00110886143
0.00111420829
0.0011189063
0.00112305269
0.00112670736
0.0011299128
0.00113270388
0.00113511233
0.0011367986
0.0011377582
0.00113866369
0.00113953519
0.00114039339
0.00114125842
0.00114214875
0.0011430803
0.00114406566
0.000766121521
0.000870081342
0.000925796203
0.000976359511
0.00101677852
0.00104669066
0.00106773588
0.00108236548
0.0010927761
0.00110054109
0.0011066661
0.00111174324
0.00111609923
0.00111990738
0.00112325876
0.00112620316
0.00112877127
0.00113098597
0.00113283743
0.00113351682
0.00113393038
0.00113433759
0.00113475729
0.0011352092
0.00113571269
0.00113628556
0.00113694286
0.00113769592
0.000766816763
0.000872664386
0.000930309698
0.000982463079
0.00102385443
0.00105409622
0.00107496609
0.00108910948
0.00109888184
0.00110595664
0.0011113946
0.00111581485
0.00111955552
0.00112279309
0.00112561727
0.00112807389
0.00113018824
0.00113197713
0.00113299477
0.00113295107
0.00113290885
0.00113288789
0.00113290976
0.00113299679
0.00113317077
0.00113345161
0.00113385594
0.0011343958
0.000767310239
0.000874504247
0.000933599285
0.000987055275
0.00102935243
0.00106003547
0.00108095456
0.0010948877
0.00110431044
0.00111097782
0.00111599737
0.00112001147
0.00112336787
0.00112624543
0.00112873257
0.00113087184
0.00113268419
0.00113400273
0.00113395259
0.00113354357
0.00113314353
0.00113277749
0.00113247218
0.001132255
0.00113215265
0.00113218953
0.00113238597
0.0011327566
0.000767678311
0.00087587381
0.000936080834
0.000990601093
0.00103371106
0.00106487124
0.00108596087
0.00109984502
0.0011090886
0.00111551334
0.00112026852
0.00112401922
0.00112712365
0.00112976416
0.00113202865
0.00113395694
0.00113556591
0.00113579417
0.00113512239
0.00113442838
0.00113374104
0.00113309169
0.0011325136
0.00113204102
0.00113170753
0.0011315441
0.00113157678
0.00113182446
0.000767963255
0.000876930436
0.000938010354
0.000993405374
0.00103723271
0.00106886888
0.00109019613
0.00110413443
0.00111331328
0.00111960714
0.00112420127
0.00112778223
0.00113071959
0.00113320057
0.00113531393
0.00113709768
0.00113778171
0.00113703596
0.00113613639
0.00113519984
0.00113426155
0.00113335981
0.00113253572
0.00113183201
0.00113129123
0.00113095315
0.00113085178
0.00113101222
0.000768190499
0.00087776991
0.000939550235
0.000995671192
0.00104012735
0.00107221934
0.0010938186
0.00110787818
0.00111707331
0.00112331905
0.00112783041
0.0011313132
0.00113414817
0.00113652818
0.00113854381
0.00113954764
0.00113899299
0.00113798115
0.00113687348
0.00113570845
0.00113452783
0.00113337765
0.00113230817
0.00113137265
0.00113062508
0.00113011698
0.00112989327
0.00112998786
0.000768376016
0.000878452751
0.000940806185
0.000997536396
0.00104254346
0.00107506265
0.0010969482
0.00111117205
0.00112044146
0.00112670228
0.00113119356
0.00113463762
0.00113742552
0.00113975578
0.00114112586
0.00114084234
0.00113982576
0.00113863958
0.00113732563
0.00113592748
0.00113449344
0.00113307804
0.00113174227
0.00113055233
0.001129577
0.00112888349
0.00112853181
0.00112856842
0.000768530211
0.000879018565
0.000941848934
0.00099909638
0.00104458758
0.00107750273
0.00109967677
0.00111409157
0.00112347678
0.00112980154
0.00113432412
0.00113778068
0.00114057141
0.00114238426
0.00114246683
0.00114157438
0.00114042327
0.00113906081
0.00113753151
0.00113588306
0.00113417003
0.00113245606
0.0011308145
0.00112932747
0.00112808284
0.0011271689
0.00112666677
0.00112664112
0.000768660082
0.000879494067
0.000942726935
0.0010004182
0.00104633687
0.00107961716
0.00110207486
0.00111669636
0.00112622703
0.00113265379
0.00113725028
0.0011407643
0.0011431589
0.00114373515
0.00114312138
0.00114214187
0.00114085565
0.0011393096
0.00113754894
0.00113562392
0.00113359451
0.00113153357
0.00112952847
0.00112768068
0.00112610266
0.00112491125
0.00112421736
0.00112411241
0.00076877046
0.000879897713
0.000943474041
0.00100154964
0.00104784763
0.0010814639
0.00110419643
0.00111903296
0.00112873013
0.00113528864
0.0011399947
0.00114322395
0.0011444793
0.00114433162
0.00114368367
0.00114262053
0.00114119756
0.00113945844
0.00113744633
0.00113521162
0.00113281783
0.00113034642
0.00112789996
0.0011256031
0.00112359983
0.00112204574
0.00112109427
0.00112087684
0.000768864747
0.000880242518
0.00094411429
0.00100252508
0.00104916106
0.00108308618
0.00110608236
0.00112113703
0.00113101518
0.00113772858
0.00114224773
0.00114447199
0.00114502924
0.00114490127
0.00114422764
0.00114308693
0.0011415277
0.00113958701
0.00113730225
0.00113472016
0.00113190453
0.00112894331
0.00112595452
0.00112308968
0.00112053279
0.00111849208
0.00111718227
0.00111677691
0.000768945391
0.000880537817
0.000944664973
0.00100336944
0.00105030736
0.00108451592
0.00110776299
0.00112303492
0.00113310324
0.00113971114
0.00114338419
0.00114497912
0.00114560601
0.00114551113
0.00114482574
0.00114361927
0.00114193011
0.00113978435
0.00113720852
0.00113424014
0.0011309378
0.00112739141
0.00112373246
0.00112014206
0.00111685391
0.00111414748
0.00111231347
0.00111162171
0.000769014181
0.000880790413
0.000945138665
0.00100410086
0.00105130852
0.00108577639
0.00110926018
0.00112474505
0.00113477091
0.0011407032
0.00114384608
0.00114555191
0.00114626548
0.0011462243
0.00114554952
0.00114429862
0.00114249597
0.00114015162
0.00113727469
0.00113388548
0.00113002842
0.00112578694
0.00112129998
0.00111677796
0.00111251395
0.00110888265
0.00110625739
0.00110515203
0.000769072458
0.000881005355
0.000945544611
0.00100473258
0.00105218047
0.00108688411
0.00111058892
0.00112607498
0.00113559476
0.00114111372
0.00114439684
0.0011462325
0.00114705749
0.00114709991
0.0011464694
0.00114520893
0.00114332484
0.00114080524
0.00113763353
0.00113380184
0.001129327
0.00112427123
0.00111876765
0.00111304906
0.00110747434
0.0011024877
0.00109875107
0.0010969843
0.000769121257
0.000881186487
0.000945889723
0.00100527434
0.00105293462
0.00108785049
0.00111158034
0.00112671746
0.00113594665
0.00114162176
0.00114506391
0.00114705511
0.00114802475
0.00114819163
0.00114765308
0.00114643572
0.00114452422
0.00114187836
0.00113844578
0.00113417617
0.00112903963
0.0011230533
0.00111631901
0.00110907175
0.00110170011
0.00109481191
0.00108941041
0.00108656346
0.000769161418
0.000881336847
0.000946179303
0.00100573336
0.00105357913
0.00108852391
0.00111204005
0.00112700465
0.00113639282
0.00114224097
0.00114586584
0.0011480447
0.00114920089
0.00114954493
0.00114916235
0.00114806278
0.00114620655
0.00114351939
0.00113990281
0.00113524625
0.00112944659
0.00112244008
0.00111425311
0.00110507724
0.0010952223
0.00108566849
0.00107772082
0.0010730672
0.00076919367
0.000881458953
0.000946417588
0.00100611524
0.00105397489
0.00108881142
0.00111225964
0.00112737457
0.00113693552
0.00114297621
0.00114681114
0.00114921502
0.00115060747
0.0011511931
0.00115104782
0.00115016575
0.00114848275
0.00114588714
0.00114222507
0.0011373072
0.00113092444
0.00112288056
0.00111305445
0.00110137264
0.00108829816
0.00107488777
0.00106294164
0.00105515905
0.000769212733
0.000881543834
0.000946565105
0.0010062933
0.00105411259
0.00108896502
0.0011125458
0.00112782131
0.00113756923
0.0011438228
0.00114789679
0.00115056617
0.00115225024
0.00115315167
0.00115334122
0.00115280223
0.00115145025
0.00114913789
0.00114565207
0.0011407098
0.00113396148
0.00112501307
0.00111339832
0.00109878005
0.0010815031
0.001062498
0.00104401387
0.00103043656
0.000769212666
0.000881563672
0.000946601873
0.00100631732
0.00105420747
0.00108916793
0.00111288796
0.00112833281
0.00113828042
0.00114476585
0.00114910683
0.00115208207
0.00115411492
0.00115541173
0.00115604539
0.0011559974
0.00115517341
0.00115340109
0.00115041575
0.0011458383
0.00113915228
0.00112969517
0.00111631357
0.00109855433
0.00107597393
0.00104900156
0.00101979972
0.000995475817
0.000769205243
0.000881549261
0.000946604545
0.0010063668
0.00105433616
0.00108940809
0.00111327123
0.0011288911
0.00113904765
0.00114577994
0.00115041147
0.00115372842
0.00115616327
0.00115793317
0.00115912294
0.00115972586
0.00115965615
0.0011587404
0.0011566906
0.00115305833
0.00114716972
0.00113776854
0.0011234701
0.00110271051
0.00107365667
0.00103528191
0.00098918974
0.000948880163
0.000769202095
0.00088154759
0.000946625555
0.00100643783
0.00105448743
0.00108967072
0.00111367686
0.00112947284
0.00113984209
0.00114682958
0.00115176713
0.00115545195
0.00115833084
0.00116063935
0.00116248568
0.00116389218
0.00116480773
0.00116509708
0.0011645065
0.00116259926
0.00115859907
0.0011507309
0.0011373976
0.00111547917
0.00108050917
0.00102749142
0.000956240591
0.000899309315
0.0007692023
0.000881555483
0.000946659055
0.0010065213
0.00105464852
0.00108993887
0.001114083
0.00113005029
0.00114062876
0.00114787065
0.00115311799
0.00115718183
0.00116052754
0.00116341581
0.00116598897
0.00116831598
0.00117040947
0.00117222092
0.00117361308
0.00117430047
0.00117340452
0.00116957271
0.00116096341
0.00114369513
0.00111092813
0.00105233776
0.000961643273
0.000882479609
0.000739802623
0.000821720788
0.000884286641
0.000955196234
0.00102016198
0.00107304052
0.00111337382
0.00114347193
0.00116588711
0.00118272895
0.00119561846
0.00120570762
0.00121377627
0.00122035065
0.00122579064
0.00123034659
0.00123419711
0.00123747408
0.00124027835
0.00124268971
0.00124477336
0.00124658404
0.00124816871
0.00124956836
0.00125081914
0.00125195317
0.00125299896
0.00125398172
0.000752948298
0.000758100668
0.00076315352
0.000796315023
0.000843042633
0.00089403707
0.000942833695
0.00098619482
0.00102312728
0.00105381954
0.00107905327
0.00109979585
0.00111694501
0.00113123937
0.00114325731
0.00115344219
0.00116213203
0.00116958665
0.0011760093
0.00118156267
0.00118638017
0.00119057385
0.00119423991
0.00119746252
0.00120031646
0.00120286886
0.00120518032
0.00120730557
0.000770705721
0.000770885121
0.000754230286
0.000761611429
0.000782823314
0.00081182015
0.000843665253
0.000875072728
0.000904266912
0.00093042476
0.00095333453
0.00097315993
0.000990235261
0.00100493425
0.00101760912
0.00102856769
0.00103806879
0.0010463264
0.00105351722
0.00105978846
0.00106526446
0.00107005209
0.00107424478
0.00107792569
0.00108116993
0.00108404619
0.00108661775
0.00108894311
0.000779770555
0.000790744445
0.00077425078
0.000776094806
0.000787816436
0.000805266047
0.000825333332
0.000845959831
0.000865985558
0.000884761595
0.000901958753
0.000917477536
0.000931358523
0.000943710341
0.000954668114
0.000964371702
0.000972954324
0.000980537608
0.000987230552
0.00099313037
0.00099832407
0.00100289021
0.00100690052
0.00101042134
0.0010135148
0.00101623964
0.00101865181
0.0010208047
0.000783419996
0.000802128605
0.00079010265
0.0007940291
0.000805254272
0.000819677909
0.000834857083
0.000849621596
0.000863570686
0.000876580501
0.000888614428
0.000899681336
0.000909813624
0.000919052271
0.000927441963
0.000935030084
0.000941865645
0.000947998122
0.000953476662
0.00095834967
0.000962664628
0.000966468132
0.000969806059
0.000972723846
0.000975266756
0.000977480061
0.000979409091
0.000981099114
0.00078537294
0.000808598889
0.000800134451
0.000806889754
0.000819981308
0.000834971195
0.000849341497
0.000862155409
0.000873382774
0.000883272096
0.000892089105
0.000900048431
0.000907299936
0.000913937147
0.000920015283
0.000925567803
0.000930617491
0.000935182946
0.000939282149
0.000942934297
0.00094616062
0.00094898472
0.000951432723
0.000953533372
0.000955318047
0.000956820709
0.000958077718
0.000959127465
0.000786564092
0.000812608109
0.000806645127
0.0008156529
0.00083061905
0.000846905784
0.000861841785
0.00087448773
0.000884926636
0.000893571274
0.000900856793
0.000907142711
0.000912686909
0.000917655182
0.000922146008
0.000926214735
0.000929891455
0.000933192814
0.000936129415
0.000938710221
0.000940945115
0.000942846315
0.00094442926
0.000945713131
0.000946721152
0.000947480686
0.000948023103
0.000948383382
0.000787347084
0.000815278981
0.000811111269
0.000821855666
0.000838377152
0.000855904191
0.000871657399
0.00088467302
0.000895079124
0.000903365558
0.000910052769
0.000915579465
0.000920268728
0.000924335646
0.000927913503
0.000931080507
0.000933880351
0.000936336486
0.000938461532
0.000940263277
0.000941748449
0.000942925101
0.000943804217
0.000944400812
0.000944734674
0.000944830789
0.000944719414
0.000944435745
0.000787901259
0.00081717022
0.000814326763
0.000826426494
0.000844225754
0.000862838877
0.000879397347
0.000892910483
0.000903532947
0.000911805534
0.00091830432
0.000923518358
0.000927811463
0.000931429322
0.000934527021
0.000937197486
0.00093949363
0.000941443962
0.000943063095
0.000944358683
0.000945335902
0.000946000517
0.00094636106
0.000946430449
0.000946104354
0.00094544347
0.000944777301
0.000944139141
0.000788314332
0.000818574229
0.000816735116
0.000829907715
0.000848764852
0.000868323206
0.000885633349
0.000899671116
0.000910602866
0.000919005113
0.000925496193
0.000930604049
0.000934723673
0.000938123562
0.000940974346
0.000943378754
0.000945395139
0.000947054188
0.000948370383
0.000949349611
0.000949994289
0.000950307005
0.000949550604
0.000948603105
0.000947457087
0.00094618583
0.000945126341
0.000944312717
0.000788634293
0.00081965685
0.000818600565
0.000832635666
0.000852375448
0.000872756828
0.000890758388
0.000905318645
0.000916603564
0.000925212077
0.000931793787
0.000936907529
0.000940974085
0.000944281231
0.00094701275
0.000949279386
0.000951143405
0.000952636279
0.000953770917
0.000954549926
0.000954156254
0.000953170386
0.000951277213
0.000949385463
0.000947631435
0.000946068306
0.000944745934
0.000943708136
0.000788889873
0.000820517685
0.000820086812
0.000834826395
0.000855308894
0.000876408199
0.000895040952
0.000910108261
0.000921767925
0.000930630951
0.000937368762
0.000942563895
0.000946658112
0.000949955566
0.000952651549
0.000954863855
0.000956658004
0.000958065585
0.000958800956
0.000958042676
0.000956209968
0.000953925159
0.00095165258
0.000949457533
0.000947406789
0.000945566876
0.000944001195
0.000942766246
0.00078909896
0.000821218913
0.000821298438
0.000836622393
0.000857735858
0.000879463796
0.00089867079
0.000914222824
0.000926265388
0.000935414476
0.000942356026
0.000947690217
0.000951875426
0.000955229338
0.000957957021
0.000960182302
0.000961973279
0.00096241708
0.000961520244
0.000959181847
0.000956688954
0.000954112351
0.000951525726
0.000949006958
0.000946637686
0.000944501111
0.000942678132
0.000941242105
0.000789273118
0.000821800839
0.000822304359
0.000838119956
0.00085977474
0.000882056015
0.000901785214
0.000917796628
0.000930221827
0.000939677338
0.000946858365
0.000952378052
0.000956707779
0.000960176205
0.000962996525
0.000965297552
0.000965647213
0.000964397509
0.000962104211
0.000959531992
0.000956756797
0.00095385692
0.00095091673
0.000948028369
0.000945291383
0.000942810025
0.00094068815
0.000939021918
0.000789420084
0.000822290446
0.000823151224
0.000839385535
0.000861509063
0.000884280213
0.000904484934
0.000920929704
0.000933732129
0.000943506686
0.000950954376
0.000956697977
0.00096121904
0.000964855248
0.000967619517
0.000968332016
0.000966977926
0.000964911144
0.000962423132
0.000959593791
0.000956502105
0.000953232812
0.00094988108
0.000946555039
0.000943375795
0.000940474352
0.000937985026
0.000936035316
0.000789545174
0.000822706266
0.000823871333
0.000840465818
0.000862998529
0.000886205721
0.000906844336
0.000923696924
0.000936867967
0.000946968699
0.000954703859
0.000960703522
0.000965457604
0.000968788364
0.000970066672
0.000969122521
0.000967494204
0.000965287974
0.000962589208
0.000959475138
0.000956024959
0.000952327835
0.000948489119
0.000944634385
0.000940910471
0.000937482445
0.000934525434
0.000932210681
0.000789652123
0.000823061323
0.000824487491
0.000841394084
0.000864286221
0.000887883221
0.000908918418
0.000926154079
0.00093968294
0.000950112801
0.000958150987
0.000964433598
0.000968718614
0.000970709626
0.000970640994
0.000969690355
0.000967991848
0.000965642498
0.000962719192
0.000959292155
0.000955436614
0.000951242603
0.000946823633
0.000942323306
0.000937918587
0.000933817781
0.000930251082
0.000927438894
0.000789743609
0.000823364946
0.000825016056
0.00084219433
0.000865403433
0.000889349784
0.000910747589
0.000928342165
0.000942216195
0.000952974396
0.000961326345
0.000967055555
0.000970180353
0.000971289235
0.000971281114
0.000970337568
0.000968580105
0.000966092521
0.000962937916
0.000959173702
0.000954865047
0.000950096861
0.000944986276
0.000939693533
0.000934429527
0.000929456811
0.000925071276
0.000921584396
0.000789821596
0.00082362395
0.000825468948
0.000842884033
0.000866372967
0.000890632404
0.000912361135
0.000930290541
0.00094449498
0.000955576857
0.000963356615
0.000968123808
0.000970765121
0.000971995933
0.000972072209
0.000971161403
0.000969369318
0.000966761937
0.000963382452
0.000959267757
0.00095446369
0.000949040499
0.000943110174
0.000936844217
0.000930488887
0.000924373041
0.000918861488
0.000914462523
0.000789887556
0.000823843429
0.000825854997
0.000843476048
0.00086721147
0.000891750579
0.000913779834
0.000932019268
0.000946493054
0.000957074996
0.000964094352
0.000968698727
0.000971511379
0.000972895176
0.000973092877
0.000972256167
0.000970472082
0.000967783553
0.000964206844
0.000959748677
0.000954422575
0.000948269016
0.000941379225
0.000933923153
0.000926177739
0.000918511225
0.000911494274
0.000905805818
0.000789942639
0.000824027312
0.000826180911
0.000843979981
0.000867931159
0.000892718278
0.000915017913
0.000933391062
0.000947528193
0.000957540301
0.000964636145
0.00096944479
0.000972462844
0.000974042685
0.000974413955
0.000973711825
0.000972001902
0.00096929939
0.000965585549
0.000960824527
0.000954981063
0.000948043733
0.000940055929
0.000931160082
0.000921623912
0.00091190388
0.000902797946
0.00089524288
0.000789987784
0.000824178766
0.00082645197
0.000844403209
0.000868541144
0.000893545413
0.000915874751
0.000934039662
0.000947817762
0.000958024443
0.000965338982
0.000970384633
0.000973651125
0.000975482108
0.000976095518
0.00097561043
0.000974069811
0.000971457737
0.000967713078
0.000962743162
0.000956442468
0.000948716508
0.000939519594
0.000928917329
0.000917068294
0.000904634101
0.000892581018
0.000882243205
0.000790023796
0.000824300496
0.000826672577
0.000844751699
0.000869006789
0.000894006696
0.00091621809
0.000934265293
0.00094822449
0.00095864644
0.000966207588
0.000971528007
0.000975093371
0.000977241585
0.00097818189
0.000978019869
0.000976777517
0.000974406937
0.000970799531
0.000965793667
0.000959188762
0.000950765185
0.00094032663
0.000927685164
0.000913017168
0.000896927793
0.000880611487
0.000865908668
0.000790033447
0.000824375605
0.000826806829
0.000844929928
0.000869191025
0.000894127055
0.000916379692
0.000934583744
0.00094873965
0.000959397832
0.000967234565
0.000972869867
0.000976789087
0.000979328803
0.000980694698
0.000980984569
0.000980205235
0.000978281457
0.000975058099
0.000970298357
0.000963684408
0.00095482475
0.000943222567
0.000928417894
0.000910114689
0.000888886735
0.000866141776
0.000844307436
0.000790019497
0.000824378052
0.000826824014
0.000844945193
0.000869208819
0.000894231431
0.000916609757
0.00093498086
0.000949346851
0.00096026006
0.000968399405
0.000974388417
0.000978716686
0.000981725336
0.00098362402
0.000984512246
0.000984393254
0.000983177598
0.000980676318
0.000976584594
0.000970459052
0.00096169464
0.000949250861
0.000931977711
0.000909430729
0.000881453433
0.000848455089
0.000813196214
0.000790006936
0.000824348965
0.000826799064
0.000844947762
0.000869268531
0.000894383144
0.000916892511
0.000935437076
0.000950022243
0.000961204403
0.000969667947
0.000976043683
0.00098083053
0.000984381145
0.000986918823
0.000988558215
0.000989317426
0.000989117541
0.000987767209
0.000984929229
0.000980065247
0.000972150494
0.000959398392
0.000940290575
0.000913081479
0.000875852761
0.000827102244
0.000772979003
0.000789999926
0.000824335755
0.000826796887
0.000844978108
0.000869359167
0.000894567472
0.000917208796
0.000935927967
0.000950735101
0.000962192562
0.000970992776
0.000977777348
0.00098305953
0.000987210776
0.000990478797
0.000993009541
0.000994860445
0.000996000225
0.00099629105
0.000995445904
0.000992911844
0.000987094151
0.000975810292
0.000957004147
0.000926413868
0.000878321822
0.00080824835
0.000740444733
0.00078999748
0.00082433508
0.00082681172
0.000845027546
0.000869468484
0.000894767813
0.000917536695
0.000936425124
0.000951449018
0.000963178165
0.000972314962
0.000979514544
0.000985308539
0.000990093413
0.000994151072
0.000997674525
0.00100078642
0.00100354635
0.00100594356
0.00100786841
0.00100880056
0.0010068449
0.00100063945
0.000987355582
0.000961170097
0.000912226323
0.000831020521
0.000759541513
0.000754520144
0.0008377369
0.000885277071
0.000937746352
0.000987161208
0.00102955812
0.00106360287
0.00109017504
0.00111086674
0.00112712796
0.00114010221
0.00115063276
0.00115931579
0.0011665716
0.00117270156
0.00117792586
0.00118240887
0.00118627663
0.00118962858
0.00119254529
0.00119509381
0.00119733121
0.001199307
0.00120106483
0.00120264354
0.00120407794
0.00120539927
0.00120663543
0.000771501216
0.00077352555
0.000758520827
0.000767401699
0.000789781477
0.000819505606
0.000851604673
0.00088285236
0.00091159522
0.000937140227
0.000959381359
0.000978555177
0.000995038674
0.00100922563
0.0010214739
0.00103208907
0.00104132393
0.0010493852
0.00105644242
0.00106263619
0.00106808513
0.00107289108
0.00107714306
0.00108092025
0.00108429391
0.00108732893
0.00109008463
0.00109261534
0.00079145351
0.000787120348
0.000747908738
0.000730792228
0.000728395399
0.000736329709
0.000750600758
0.000768065033
0.000786667142
0.000805113769
0.000822619274
0.00083877666
0.000853438467
0.000866609453
0.00087837376
0.000888850961
0.000898170129
0.000906455983
0.000913823002
0.000920373977
0.000926200666
0.000931385268
0.000936002082
0.000940119018
0.00094379885
0.00094710016
0.00095007797
0.000952784116
0.000801364109
0.000808449608
0.000768050586
0.000744582274
0.000732834859
0.00072987606
0.000733013771
0.000739978733
0.00074919804
0.00075960144
0.000770434359
0.000781186153
0.000791537775
0.000801305293
0.000810395106
0.000818772992
0.000826442042
0.000833427121
0.000839764785
0.000845497201
0.000850668699
0.000855323953
0.000859507164
0.000863261796
0.000866630586
0.000869655637
0.000872378479
0.000874840039
0.00080528187
0.000820723571
0.000784166669
0.000761966367
0.000749420162
0.000743738778
0.000742669803
0.000744520992
0.000748235754
0.000753149447
0.000758791867
0.000764818036
0.00077097899
0.000777096209
0.000783042975
0.000788732468
0.000794108607
0.000799138227
0.000803804853
0.000808104057
0.000812040092
0.000815623529
0.000818869648
0.0008217974
0.000824428739
0.000826788152
0.0008289023
0.00083079965
0.000807382819
0.00082765335
0.000794252098
0.000774203406
0.000763070452
0.000757939247
0.000756454901
0.000756993849
0.000758675706
0.000761056239
0.00076388651
0.000767009649
0.000770315938
0.000773718351
0.000777142415
0.00078052432
0.000783811066
0.000786960232
0.000789939267
0.000792724538
0.000795300287
0.000797657615
0.000799793619
0.000801710701
0.000803416029
0.000804921095
0.0008062413
0.000807395519
0.000808666974
0.000831927797
0.000800748514
0.000782418236
0.000772685105
0.000768638878
0.000767826614
0.000768563798
0.000769970959
0.000771652183
0.000773439732
0.000775272165
0.000777131751
0.000779009725
0.000780892483
0.000782759857
0.000784587476
0.000786349609
0.000788021529
0.000789581206
0.000791010362
0.000792295046
0.000793425936
0.000794398475
0.000795212918
0.000795874286
0.000796392225
0.000796780718
0.000809512663
0.000834774162
0.000805192727
0.000788187439
0.0007795855
0.000776506315
0.000776458687
0.000777719881
0.000779397195
0.000781100674
0.00078268386
0.000784118484
0.00078542576
0.000786635989
0.000787771156
0.000788841249
0.000789845865
0.000790777199
0.000791623088
0.00079236962
0.000793003136
0.000793511712
0.00079388626
0.000794121355
0.000794215842
0.000794173259
0.000794002036
0.000793715451
0.000810112931
0.000836790728
0.000808387074
0.000792419005
0.000784738764
0.000782476574
0.000783117501
0.000784914645
0.00078696895
0.000788896617
0.000790563933
0.000791959487
0.000793123173
0.000794103758
0.00079494031
0.000795657889
0.000796268808
0.000796775482
0.000797173551
0.000797454714
0.000797609056
0.000797626918
0.000797500418
0.00079722471
0.000796799015
0.000796227415
0.000795519371
0.000794689882
0.000810561003
0.000838287931
0.0008107764
0.000795631616
0.000788713648
0.000787150367
0.000788404151
0.000790705488
0.000793147544
0.000795351196
0.000797193932
0.000798678334
0.000799858544
0.00080079617
0.000801541024
0.000802126757
0.000802572256
0.000802884693
0.000803062879
0.000803100332
0.000802987867
0.00080271577
0.00080227566
0.000801662109
0.000800874068
0.000799916025
0.000798798856
0.000797540218
0.000810908108
0.000839442132
0.000812625273
0.000798143434
0.000791861506
0.000790900726
0.000792701924
0.000795473403
0.000798297464
0.000800795424
0.000802852308
0.000804481777
0.000805749907
0.00080672922
0.000807478487
0.000808038088
0.000808431489
0.000808668501
0.000808748897
0.000808665769
0.000808408442
0.000807965002
0.000807324561
0.000806479321
0.000805397709
0.000803698538
0.000802000518
0.000800332479
0.000811185198
0.000840359413
0.000814097167
0.000800157374
0.000794410689
0.00079397184
0.000796262555
0.000799470498
0.000802665522
0.000805465865
0.000807760219
0.000809569875
0.000810970112
0.000812042414
0.000812853165
0.000813448505
0.000813855651
0.000814086199
0.000814139874
0.000814008118
0.000813677312
0.000813131647
0.000811423483
0.00080959686
0.000807670431
0.000805286273
0.000803086641
0.000801114304
0.000811411652
0.000841106057
0.000815296241
0.000801806429
0.000796514435
0.000796530171
0.000799259319
0.000802871153
0.00080642292
0.000809527756
0.000812075173
0.000814091158
0.000815657636
0.000816863029
0.000817779868
0.000818459003
0.000818930595
0.000819207273
0.000819287869
0.000819107086
0.000817522861
0.000815772793
0.000812940095
0.000810111288
0.000807365791
0.000804761297
0.000802355381
0.000800202706
0.000811600059
0.000841725096
0.000816290976
0.00080317993
0.000798277928
0.000798692051
0.000801814988
0.000805800098
0.000809692804
0.000813100307
0.000815911126
0.000818153898
0.000819915211
0.000821288727
0.000822351817
0.000823159019
0.000823742605
0.000824115412
0.00082318447
0.000821673596
0.000818762967
0.000815738377
0.000812657031
0.000809580756
0.000806576403
0.000803714852
0.000801068549
0.000798707637
0.000811758885
0.000842245379
0.000817127625
0.000804339186
0.000799774707
0.000800540179
0.000804018049
0.000808348276
0.000812565725
0.000816271542
0.0008193524
0.000821838354
0.000823819228
0.000825392805
0.000826640377
0.000827619361
0.000827863532
0.000826929216
0.000824611255
0.000821732283
0.000818638455
0.000815386687
0.000812039785
0.000808668505
0.000805352272
0.000802178124
0.000799237592
0.00079662139
0.000811893968
0.000842686744
0.000817838163
0.000805327094
0.000801056967
0.000802134055
0.000805932965
0.000810582643
0.000815108799
0.000819106975
0.000822461852
0.000825204174
0.000827426358
0.000829229785
0.000830699095
0.00083077808
0.000829740573
0.000827403281
0.000824690999
0.000821655814
0.000818350453
0.000814832949