/*--------------------------------*- C++ -*----------------------------------*\
| =========                 |                                                 |
| \\      /  F ield         | foam-extend: Open Source CFD                    |
|  \\    /   O peration     | Version:     4.1                                |
|   \\  /    A nd           | Web:         http://www.foam-extend.org         |
|    \\/     M anipulation  |                                                 |
\*---------------------------------------------------------------------------*/
FoamFile
{
    version     2.0;
    format      ascii;
    class       volVectorField;
    location    "0.4";
    object      U;
}
// * * * * * * * * * * * * * * * * * * * * * * * * * * * * * * * * * * * * * //

dimensions      [0 1 -1 0 0 0 0];

internalField   nonuniform List<vector> 
35840
(
(3.94086029 0.268528649 0.261844367)
(3.20795348 0.371831837 0.357379744)
(2.43829599 0.266507188 0.249860628)
(1.72034743 0.156945209 0.141978539)
(1.29366844 0.0888171159 0.0772232915)
(1.05218196 0.0517249736 0.0439393285)
(0.893424158 0.0312051497 0.0270973412)
(0.785213262 0.0189934174 0.0180820293)
(0.711689499 0.0115215605 0.0131448326)
(0.66003852 0.00694595927 0.0104223772)
(0.622054581 0.00409099114 0.00881419214)
(0.593072292 0.00225824786 0.00773558029)
(0.570307413 0.00105748363 0.0069152143)
(0.552003547 0.000261109249 0.00623124509)
(0.537026893 -0.000270169231 0.00562896457)
(0.524621447 -0.000622610858 0.00508479383)
(0.514257429 -0.00085012682 0.0045886604)
(0.505541507 -0.00098787427 0.00413511929)
(0.498175148 -0.00105920022 0.00372036065)
(0.491917494 -0.00107909461 0.00334119896)
(0.486568697 -0.00105772796 0.00299460993)
(0.481959118 -0.00100261664 0.00267787067)
(0.477941997 -0.000919697658 0.00238871141)
(0.474388866 -0.000813922787 0.00212531264)
(0.471186474 -0.000689732787 0.00188628112)
(0.468234908 -0.000551382639 0.00167060415)
(0.465446529 -0.000403109629 0.00147757938)
(0.462745493 -0.000249166903 0.00130672875)
(4.52124952 0.409953591 0.331399954)
(4.20224575 0.638137686 0.509000258)
(3.63676229 0.54349739 0.40727472)
(2.94289235 0.391291934 0.261505392)
(2.41564795 0.267505069 0.152218728)
(2.06112419 0.18154739 0.0859706086)
(1.80859424 0.124040586 0.0502556734)
(1.62433066 0.0850760228 0.0317469472)
(1.49026418 0.0584729843 0.0220756619)
(1.39083288 0.0403353282 0.0169192675)
(1.31479848 0.0278881983 0.0140021842)
(1.25513527 0.0192207679 0.0121452138)
(1.20734506 0.0130861964 0.0107997053)
(1.16839797 0.00867426484 0.00972577838)
(1.13621618 0.00545454765 0.00881467457)
(1.10934691 0.00308009435 0.00801424031)
(1.08673911 0.00132324791 0.00729777839)
(1.06760604 3.21135081e-05 0.00664976007)
(1.05133106 -0.000896433205 0.00605923592)
(1.03741973 -0.00153356199 0.00551724682)
(1.0254668 -0.00193004377 0.00501630581)
(1.01513126 -0.00212347121 0.00455049977)
(1.00611877 -0.0021431728 0.00411539868)
(0.998172295 -0.00201354419 0.00370777965)
(0.991065285 -0.00175623384 0.00332546005)
(0.984597274 -0.00139161154 0.00296717202)
(0.978591208 -0.000939669504 0.002632425)
(0.972892048 -0.000420451858 0.00232133781)
(4.44213355 0.221361847 0.337952016)
(4.08278422 0.436517199 0.518819302)
(3.65713735 0.46311763 0.418089556)
(3.13712347 0.40885627 0.275889366)
(2.71978484 0.331890537 0.166458359)
(2.42182344 0.257600153 0.096105439)
(2.1981063 0.195670148 0.0564759105)
(2.02636346 0.147046835 0.0358950943)
(1.89486725 0.109790687 0.0253566835)
(1.79246038 0.0816454943 0.0198193448)
(1.71059148 0.060537284 0.0166882944)
(1.64383497 0.0447144919 0.0146492256)
(1.58864509 0.0328003002 0.013104135)
(1.542517 0.0237588222 0.011814206)
(1.50363114 0.0168340503 0.0106873074)
(1.47064049 0.0114881532 0.00968515101)
(1.44251658 0.00734460272 0.00878875809)
(1.4184499 0.00414127254 0.00798498846)
(1.39778621 0.00169487714 0.00726170956)
(1.37998635 -0.000124936248 0.00660708076)
(1.36459271 -0.0014128682 0.00601000281)
(1.35121369 -0.0022401803 0.00546069486)
(1.33950777 -0.00266300801 0.00495112087)
(1.32917295 -0.00272853708 0.00447504284)
(1.31994001 -0.00247931107 0.00402789317)
(1.31156806 -0.00195610892 0.0036066067)
(1.30384187 -0.00119976884 0.00320941866)
(1.29657057 -0.000252170867 0.00283562538)
(4.41370728 0.123370316 0.337929259)
(3.97527185 0.285996633 0.516843565)
(3.52614267 0.34694362 0.410945222)
(3.04826582 0.341764753 0.267056406)
(2.69650368 0.304730478 0.158688666)
(2.46049518 0.256423551 0.0893124671)
(2.28810549 0.208537139 0.0503497185)
(2.15601588 0.166254013 0.0306493737)
(2.05357551 0.13085342 0.0211777964)
(1.97171586 0.102014308 0.0166844086)
(1.9039492 0.0788878975 0.0144673591)
(1.84657951 0.0604977755 0.0131692504)
(1.79744483 0.0459167031 0.012180672)
(1.75508988 0.0343445252 0.0112818282)
(1.71845148 0.0251323544 0.0104160098)
(1.68670847 0.0177776272 0.00958099472)
(1.6591892 0.0119037063 0.0087877578)
(1.63532187 0.0072342674 0.00804576727)
(1.61460953 0.0035686273 0.00735883329)
(1.59661507 0.000761002277 0.00672563936)
(1.58094969 -0.00129617788 0.00614158813)
(1.56726477 -0.00268509407 0.00560089351)
(1.55524521 -0.00347158299 0.00509755858)
(1.54460426 -0.00371231728 0.00462612773)
(1.53508002 -0.00346025521 0.00418213162)
(1.52643335 -0.00276841775 0.00376225661)
(1.51844684 -0.00169231928 0.00336434411)
(1.51092472 -0.000291262562 0.00298728299)
(4.40562824 0.0838879969 0.338530338)
(3.92709355 0.20587461 0.518667536)
(3.43458243 0.264640279 0.409526028)
(2.94273776 0.274646 0.261034091)
(2.60542948 0.257675419 0.150311608)
(2.39687862 0.22797443 0.0806002997)
(2.2554622 0.19421825 0.0421477424)
(2.15329456 0.161487226 0.0232703526)
(2.0774012 0.132062664 0.0147415863)
(2.01793519 0.106595305 0.0111886465)
(1.96849217 0.0850142158 0.00984715674)
(1.92582097 0.0669587803 0.0093327615)
(1.88833729 0.0519667596 0.0090201884)
(1.85517548 0.039569161 0.0086852857)
(1.82580369 0.0293401127 0.00827901408)
(1.79984448 0.0209190607 0.00781337576)
(1.77697918 0.0140153876 0.00731527189)
(1.75690793 0.00840302009 0.00680935628)
(1.73933913 0.00391033197 0.00631273893)
(1.72398825 0.000408801425 0.00583493383)
(1.71058011 -0.00219859484 0.00537988402)
(1.69884968 -0.00398712399 0.00494838234)
(1.68854261 -0.00501843116 0.00453921246)
(1.67941617 -0.00534767897 0.00415026664)
(1.67123989 -0.00502923858 0.00377935412)
(1.66379674 -0.004120906 0.00342465077)
(1.6568846 -0.00268674664 0.00308491837)
(1.65031826 -0.000798597752 0.00275957842)
(4.40178183 0.0613581189 0.339164701)
(3.90241807 0.153225014 0.52051354)
(3.3807445 0.204412201 0.410098645)
(2.86921842 0.221083674 0.258747839)
(2.52751068 0.215752438 0.145979396)
(2.32477763 0.19808908 0.0755294337)
(2.19489721 0.174644714 0.0370218853)
(2.10724076 0.149801746 0.018339776)
(2.04673088 0.12599806 0.0101165358)
(2.00216575 0.104301253 0.00691322805)
(1.96645599 0.0850560225 0.00592979471)
(1.93606034 0.0682655369 0.00577172614)
(1.90933128 0.0537733929 0.00580768132)
(1.88547851 0.0413577608 0.00580467047)
(1.86412023 0.0307842128 0.00570615249)
(1.84505709 0.0218343371 0.00552016978)
(1.82814764 0.01431932 0.0052726872)
(1.81325306 0.00808429404 0.00498953237)
(1.80022014 0.00300713011 0.00469031644)
(1.78887826 -0.00100613455 0.00438760193)
(1.77904532 -0.00402785802 0.00408875791)
(1.77052769 -0.00611499963 0.00379764426)
(1.76312645 -0.00731599707 0.00351563756)
(1.75664033 -0.00767724832 0.00324276341)
(1.75086909 -0.00724863097 0.00297849171)
(1.74561715 -0.00608795003 0.00272220412)
(1.74069732 -0.0042641138 0.0024734674)
(1.73593494 -0.00185881427 0.00223218002)
(4.39956842 0.0466866407 0.339653527)
(3.88830484 0.1177196 0.521953636)
(3.34832016 0.161235517 0.411269138)
(2.82103809 0.180136763 0.25856577)
(2.47122236 0.181406962 0.144563205)
(2.26668319 0.171521625 0.0735006383)
(2.13924608 0.155423314 0.0347873616)
(2.05692718 0.136680458 0.0160493654)
(2.0034432 0.117535632 0.00782536075)
(1.96666027 0.0991962051 0.00464302709)
(1.93890539 0.0822368957 0.00368832513)
(1.91628306 0.0668855544 0.00357047101)
(1.89693072 0.0531847757 0.00366517738)
(1.8799433 0.0410830863 0.00374029994)
(1.8648974 0.0304876214 0.00373550314)
(1.85160061 0.021294256 0.00365386557)
(1.83994698 0.0134042636 0.00351674619)
(1.82984723 0.006732694 0.00334622912)
(1.82120172 0.00121145074 0.00315919855)
(1.81389172 -0.00321184465 0.0029665913)
(1.80778014 -0.00657676083 0.00277504637)
(1.80271111 -0.00891415484 0.00258799385)
(1.79851494 -0.0102522778 0.00240669567)
(1.79501138 -0.0106226085 0.00223124152)
(1.79201382 -0.0100653452 0.00206118953)
(1.7893341 -0.0086342207 0.00189594198)
(1.78678792 -0.00640012254 0.00173496951)
(1.78420071 -0.00345303011 0.00157793975)
(4.39821758 0.0366448765 0.340043086)
(3.87961792 0.0929718 0.523109669)
(3.32762794 0.129546401 0.41249579)
(2.78861944 0.148158447 0.259133164)
(2.43115061 0.152908517 0.144408374)
(2.22291005 0.148073601 0.072950871)
(2.09465629 0.137260969 0.0341033012)
(2.01364178 0.123246644 0.015319203)
(1.96289055 0.107938519 0.00705903962)
(1.92969796 0.0925170389 0.00382983473)
(1.90601095 0.0776606891 0.0028137578)
(1.88768835 0.0637337965 0.00262809881)
(1.87270019 0.0509136459 0.00266077547)
(1.86002804 0.0392710398 0.00268780227)
(1.84917701 0.0288195214 0.0026518298)
(1.83991493 0.0195451986 0.00255581043)
(1.8321189 0.0114247834 0.00241945617)
(1.82569799 0.00443607742 0.0022625576)
(1.82055935 -0.00143690913 0.00209958838)
(1.8165971 -0.0062029576 0.00193961097)
(1.81368415 -0.00986436414 0.0017876918)
(1.81167412 -0.0124207215 0.00164585241)
(1.81040226 -0.0138743118 0.00151429736)
(1.80968825 -0.0142359343 0.00139230236)
(1.80934027 -0.0135309573 0.0012787302)
(1.80916043 -0.0118049345 0.00117233716)
(1.8089515 -0.00912802028 0.00107192427)
(1.80852474 -0.00559742396 0.000976414765)
(4.39732391 0.0293687685 0.340349758)
(3.87389688 0.0747872202 0.524005692)
(3.31374767 0.105393636 0.413536269)
(2.7661213 0.122590924 0.259833112)
(2.40223318 0.128953832 0.144688777)
(2.19008589 0.127294462 0.0729976435)
(2.05992424 0.120187671 0.0340839047)
(1.97855603 0.109741823 0.0152897173)
(1.92857005 0.0975123745 0.00701671275)
(1.89688245 0.084562088 0.00375633348)
(1.87517569 0.071580208 0.00268815334)
(1.8591353 0.0589956349 0.00243472254)
(1.84661408 0.0470676511 0.00239356694)
(1.8365128 0.0359506986 0.00234905544)
(1.82828188 0.0257367074 0.00224887874)
(1.8216539 0.0164823699 0.00209841924)
(1.81648502 0.00822694729 0.00191819826)
(1.81267318 0.00100354287 0.00172781001)
(1.81012123 -0.00515496649 0.00154113284)
(1.80872037 -0.010213149 0.00136659955)
(1.80834187 -0.0141333874 0.00120838135)
(1.80883494 -0.0168796827 0.00106770209)
(1.81002621 -0.0184228948 0.0009441174)
(1.81172152 -0.0187473282 0.000836332295)
(1.81370976 -0.0178580973 0.000742658336)
(1.81576889 -0.0157882619 0.000661310612)
(1.81767426 -0.0126045923 0.000590488252)
(1.8192087 -0.00841094098 0.000528379974)
(4.39669944 0.023852432 0.340587127)
(3.86993903 0.0608859302 0.524692013)
(3.30406402 0.0864698558 0.41437073)
(2.75005587 0.101811033 0.26048487)
(2.38095737 0.108640282 0.145088531)
(2.1651974 0.108832974 0.0732519675)
(2.03282286 0.10421387 0.0342996348)
(1.95040298 0.0963624494 0.0155064019)
(1.90025227 0.0865135833 0.00723341588)
(1.86902787 0.075576581 0.00395977813)
(1.84821861 0.0641947623 0.00286201556)
(1.83337646 0.0528089168 0.00256481005)
(1.82226287 0.0417176941 0.00247126017)
(1.81371673 0.0311262922 0.00237135791)
(1.80714748 0.0211805741 0.00221673087)
(1.8022619 0.0119903875 0.00201511607)
(1.79890127 0.00364585005 0.00178832228)
(1.79695579 -0.00377185684 0.00155654378)
(1.79632491 -0.0101839354 0.00133408725)
(1.79689693 -0.0155106787 0.00112948517)
(1.79853928 -0.019672228 0.000946753555)
(1.80109311 -0.0225923198 0.000787023644)
(1.80437094 -0.0242043883 0.00064982667)
(1.80815742 -0.0244597042 0.000533860112)
(1.81221266 -0.0233367835 0.000437343296)
(1.81627896 -0.0208509505 0.00035824109)
(1.82009087 -0.0170625099 0.000294464963)
(1.82338857 -0.0120819411 0.000243974293)
(4.39624677 0.0195259769 0.340770186)
(3.86709464 0.0499230888 0.525219481)
(3.29707393 0.0712775461 0.415029787)
(2.73826524 0.0846448768 0.261039943)
(2.36497694 0.0912605546 0.145483505)
(2.14604042 0.0924055416 0.0735506327)
(2.01146269 0.0893736445 0.0345710243)
(1.92770409 0.0833376086 0.0157784371)
(1.87691679 0.0752607543 0.00750714781)
(1.84558762 0.0658964903 0.00422728067)
(1.82506766 0.0558150183 0.00311283259)
(1.81080646 0.0454360366 0.00278928017)
(1.80049188 0.0350669801 0.0026627262)
(1.79291207 0.0249380893 0.00252640792)
(1.78744322 0.0152288191 0.00233432134)
(1.78377224 0.00608699557 0.00209565712)
(1.78173021 -0.00235713221 0.00183304742)
(1.78120396 -0.00998081423 0.00156733918)
(1.78209277 -0.0166620528 0.00131334652)
(1.78428558 -0.0222767607 0.00107973175)
(1.7876476 -0.0266997256 0.000870703798)
(1.79201204 -0.0298088129 0.000687691979)
(1.79717563 -0.0314925482 0.000530456645)
(1.80289706 -0.0316606331 0.000397855044)
(1.80889958 -0.0302565112 0.000288334519)
(1.81487825 -0.0272706738 0.000200138781)
(1.82051254 -0.0227527462 0.000131384809)
(1.82548391 -0.0168198998 8.00532418e-05)
(4.39590804 0.0160406099 0.34091176)
(3.86498163 0.0410547621 0.525627713)
(3.29187023 0.0588226331 0.415548745)
(2.72938193 0.0702579733 0.261496005)
(2.35271707 0.0762796094 0.145832972)
(2.1310439 0.0777831117 0.073834089)
(1.99439877 0.0756898129 0.0348337047)
(1.90920856 0.0708660932 0.0160391544)
(1.85753843 0.0640544434 0.00776717925)
(1.82576954 0.0558654837 0.00448195858)
(1.80516054 0.0467872508 0.00335581801)
(1.79108694 0.037200046 0.00301466768)
(1.78118034 0.0273998669 0.00286634386)
(1.77418897 0.0176231592 0.00270591794)
(1.76946306 0.00806692652 0.00248865516)
(1.76667485 -0.00109590187 0.00222441704)
(1.76564978 -0.00970430188 0.00193632177)
(1.76627579 -0.0175996215 0.00164566477)
(1.76845679 -0.024619215 0.00136733884)
(1.77208639 -0.0305938359 0.00111010329)
(1.77703106 -0.0353486416 0.000878336098)
(1.78311828 -0.0387083149 0.00067369822)
(1.79012839 -0.040506547 0.000496259773)
(1.79779018 -0.0405997546 0.000345297654)
(1.80578162 -0.0388842882 0.000219720653)
(1.81373734 -0.0353154236 0.000118242953)
(1.82126383 -0.0299254834 3.94101361e-05)
(1.82796284 -0.0228374948 -1.84825333e-05)
(4.39564723 0.0131735631 0.341022101)
(3.86336467 0.0337365656 0.525947117)
(3.28788449 0.0484401976 0.415959873)
(2.72251614 0.0580587242 0.261867096)
(2.34310334 0.0632891376 0.146130134)
(2.11908365 0.0647681499 0.0740846898)
(1.98054702 0.0631552926 0.0350681168)
(1.89392671 0.0590886226 0.0162697491)
(1.84124839 0.0531347166 0.00799478525)
(1.80883242 0.0457796636 0.00470364587)
(1.78787966 0.0374299623 0.00356765471)
(1.77371617 0.0284177058 0.00321307235)
(1.76393426 0.0190147863 0.00304885104)
(1.75725408 0.00945047921 0.00287112572)
(1.7530084 -7.32605474e-05 0.00263576225)
(1.75086155 -0.00936913603 0.00235300854)
(1.75063992 -0.0182534008 0.00204630841)
(1.75223892 -0.026536795 0.00173693075)
(1.75557343 -0.0340182656 0.00143961895)
(1.76054826 -0.0404818464 0.00116311807)
(1.76703724 -0.0456975693 0.000911899999)
(1.77486669 -0.0494273819 0.000687810305)
(1.78380222 -0.051436841 0.000491227257)
(1.79353972 -0.0515129424 0.000321868232)
(1.80370275 -0.0494875892 0.000179185755)
(1.81384901 -0.0452648624 6.25388254e-05)
(1.82348845 -0.0388485487 -2.88309511e-05)
(1.83211409 -0.0303645923 -9.59909423e-05)
(4.39544107 0.0107777506 0.341109196)
(3.86209283 0.0276062664 0.526200699)
(3.28474793 0.039674834 0.416289455)
(2.71707433 0.0476213669 0.262169934)
(2.33539222 0.0519748689 0.146379646)
(2.10935121 0.053190574 0.0743004444)
(1.96909805 0.0517416004 0.0352713089)
(1.88109075 0.0480958667 0.0164685284)
(1.82734382 0.0426808804 0.00818944146)
(1.79414655 0.0358766183 0.00489213372)
(1.77266701 0.028013147 0.00374737236)
(1.75820157 0.0193710972 0.00338173364)
(1.74831842 0.0101905408 0.00320492959)
(1.74172123 0.000683812566 0.00301368262)
(1.73773467 -0.00895233026 0.00276426723)
(1.73602412 -0.0185253259 0.00246728)
(1.73642547 -0.0278362677 0.00214608627)
(1.73885017 -0.036670722 0.00182161692)
(1.74323363 -0.0447914114 0.00150841746)
(1.74950217 -0.051933835 0.0012151271)
(1.75754723 -0.057806308 0.000946212031)
(1.76720271 -0.0620960391 0.000703626326)
(1.77822487 -0.0644828586 0.000487994325)
(1.79027614 -0.064661868 0.000299451332)
(1.80291644 -0.0623751789 0.000138089309)
(1.81560657 -0.0574510443 4.12969659e-06)
(1.82772846 -0.049845881 -0.00010215651)
(1.83862561 -0.0396813528 -0.00018078613)
(4.39527402 0.00875315435 0.341179137)
(3.86106604 0.0224160101 0.52640562)
(3.28221426 0.0322081798 0.416557816)
(2.7126521 0.0386368261 0.262419564)
(2.32906252 0.0420962178 0.146589355)
(2.1012617 0.0429084435 0.0744850321)
(1.95944758 0.0414110226 0.0354462476)
(1.87010932 0.0379440406 0.0166392806)
(1.81526597 0.0328248697 0.00835586887)
(1.78119437 0.0263437394 0.0050526619)
(1.75904704 0.0187608134 0.00390014906)
(1.74410544 0.0103048309 0.00352516711)
(1.73392599 0.00117901039 0.00333791208)
(1.72720619 -0.00842893772 0.00313560128)
(1.72327265 -0.0183359552 0.00287499451)
(1.72180151 -0.0283528635 0.00256664035)
(1.72264795 -0.038273654 0.00223344979)
(1.72575098 -0.0478649236 0.00189601007)
(1.7310799 -0.0568562955 0.00156861703)
(1.73859749 -0.0649334637 0.00125971193)
(1.7482287 -0.0717358513 0.000973611679)
(1.75983023 -0.076861417 0.000712232051)
(1.77316068 -0.079881493 0.000476348765)
(1.78785338 -0.0803684435 0.000266487533)
(1.80339713 -0.0779377929 8.34695543e-05)
(1.81913226 -0.0723039745 -7.13498175e-05)
(1.83427102 -0.0633444839 -0.000196181499)
(1.84794934 -0.0511612854 -0.000289331195)
(4.39513547 0.00703009336 0.341236506)
(3.86021626 0.0179923335 0.52657459)
(3.28011524 0.0258138994 0.416780325)
(2.70896914 0.0308790362 0.262628316)
(2.32374481 0.0334698502 0.146767136)
(2.09438971 0.033806534 0.0746436042)
(1.95114439 0.0321253448 0.0355974493)
(1.86052922 0.0286688672 0.0167868861)
(1.80457526 0.0236664034 0.00849945818)
(1.76955787 0.0173319774 0.00519093111)
(1.74662501 0.00986217254 0.00403166242)
(1.73105336 0.0014342762 0.00364864791)
(1.72039666 -0.00778924965 0.00345260394)
(1.71335553 -0.0176516795 0.00324144955)
(1.70926755 -0.0279918522 0.00297199606)
(1.70782883 -0.0386334138 0.00265430725)
(1.70892511 -0.0493727359 0.00231086521)
(1.71253693 -0.0599656087 0.00196193179)
(1.7186846 -0.0701139682 0.001621436)
(1.72738805 -0.0794543677 0.00129743693)
(1.73862923 -0.0875508167 0.000993931477)
(1.75231207 -0.0938956824 0.000712610674)
(1.7682192 -0.0979233411 0.000454216175)
(1.78596819 -0.0990418309 0.000219554595)
(1.80497432 -0.0966870334 1.02296966e-05)
(1.82443167 -0.0904009711 -0.000170928589)
(1.84332779 -0.0799293623 -0.000319878004)
(1.8605077 -0.0653235233 -0.000432154056)
(4.39501803 0.00555901179 0.341284706)
(3.8594964 0.0142114473 0.52671696)
(3.27833408 0.0203285896 0.416968439)
(2.70582868 0.02418133 0.262805813)
(2.31917524 0.025956526 0.146919752)
(2.08842516 0.0257936621 0.0747811011)
(1.94385245 0.023851233 0.0357293114)
(1.85200554 0.0202959614 0.0169158236)
(1.79492993 0.0152856193 0.00862487186)
(1.75890488 0.00896877922 0.0053116464)
(1.73507977 0.00148359901 0.00414640259)
(1.71873249 -0.00704383494 0.00375649583)
(1.70742088 -0.01649497 0.0035535218)
(1.69985541 -0.0267503383 0.0033356014)
(1.69539137 -0.0376798494 0.00305911118)
(1.69375362 -0.0491311036 0.0027336979)
(1.69487011 -0.0609148211 0.00238152394)
(1.69877859 -0.0727877435 0.00202238395)
(1.70557145 -0.0844337782 0.0016696683)
(1.71535293 -0.0954452248 0.0013308768)
(1.72819514 -0.105307204 0.00100945306)
(1.74408664 -0.113390212 0.000706580905)
(1.76287123 -0.118957946 0.000422652747)
(1.78417966 -0.121199465 0.000158490154)
(1.80736293 -0.11929536 -8.3583815e-05)
(1.83144428 -0.112525104 -0.000298886207)
(1.85511562 -0.100414019 -0.000480064757)
(1.87680956 -0.0829029048 -0.000618270812)
(4.39491651 0.00430397932 0.341326236)
(3.85887355 0.0109833677 0.526839554)
(3.27678898 0.0156324758 0.41713059)
(2.70309181 0.0184197285 0.262959341)
(2.3151652 0.0194506185 0.147052604)
(2.08314289 0.0187991777 0.0749016805)
(1.9373237 0.0165626149 0.0358455402)
(1.84427947 0.0128473386 0.0170297147)
(1.78606927 0.00775197187 0.0087356616)
(1.74897744 0.00136773938 0.00541811971)
(1.72415674 -0.0062218661 0.00424760242)
(1.70688962 -0.014941562 0.00385237873)
(1.69474144 -0.0247199584 0.00364431096)
(1.68643549 -0.0354821458 0.0034211979)
(1.68134937 -0.0471398013 0.00313913437)
(1.67924364 -0.0595779164 0.00280751195)
(1.68009935 -0.072637451 0.0024480376)
(1.6840279 -0.0860933098 0.00207991802)
(1.69121796 -0.0996279654 0.00171585761)
(1.70189221 -0.112802153 0.0013625928)
(1.71625808 -0.1250258 0.00102272394)
(1.7344438 -0.135535316 0.000696534948)
(1.75641476 -0.143387242 0.000383579356)
(1.7818703 -0.147482747 8.41864976e-05)
(1.81012976 -0.146641223 -0.000198905001)
(1.84003128 -0.139741526 -0.000458878819)
(1.86988283 -0.125939781 -0.000683794889)
(1.8975293 -0.104951591 -0.000857680942)
(4.39482727 0.00323838776 0.341362895)
(3.8583247 0.00824132957 0.526947281)
(3.2754228 0.0116361605 0.417272879)
(2.700661 0.0135007581 0.263094268)
(2.3115811 0.0138715396 0.147169797)
(2.07838184 0.0127688788 0.0750085806)
(1.93137887 0.0102407434 0.0359489842)
(1.83716216 0.00634468695 0.0171311741)
(1.777801 0.00112923324 0.00883410596)
(1.7395829 -0.00536567108 0.00551258153)
(1.71366391 -0.0131076951 0.00433813679)
(1.69533094 -0.0220721751 0.00393919604)
(1.68215578 -0.0322391127 0.00372730115)
(1.67287439 -0.0435864144 0.00350020795)
(1.66688786 -0.0560796568 0.00321391599)
(1.66399624 -0.0696577975 0.00287746215)
(1.66424168 -0.0842130096 0.00251200953)
(1.66782445 -0.0995631901 0.00213607313)
(1.67505559 -0.115416363 0.00176154329)
(1.68631673 -0.131327167 0.00139419058)
(1.70200918 -0.146647848 0.00103544659)
(1.72247915 -0.16048023 0.000684216048)
(1.74790813 -0.171641247 0.000338554212)
(1.77816272 -0.178663389 -2.48187698e-06)
(1.81260834 -0.179861283 -0.000336362413)
(1.84991378 -0.173503987 -0.000654192142)
(1.88790304 -0.158127918 -0.000937820057)
(1.9235817 -0.133002487 -0.00115957566)
(4.39474781 0.00234198128 0.341395943)
(3.85783406 0.00593442728 0.527043589)
(3.27419629 0.00827116371 0.41739962)
(2.69846917 0.00935225058 0.263214427)
(2.30833078 0.00915652834 0.147274303)
(2.07403063 0.00766061834 0.0751041388)
(1.92589395 0.00487268577 0.0360415532)
(1.83052281 0.000809610692 0.0172216377)
(1.76999184 -0.00452319421 0.00892162992)
(1.73058901 -0.0111312357 0.00559730762)
(1.70347055 -0.019030073 0.00442034607)
(1.68392331 -0.0282463596 0.00401863229)
(1.66952119 -0.0388159576 0.00380381161)
(1.65900867 -0.0507779976 0.00357378206)
(1.65180682 -0.0641655545 0.00328437588)
(1.64775349 -0.0789913224 0.00294421049)
(1.64695464 -0.0952255753 0.00257384081)
(1.64971034 -0.112763675 0.00219101367)
(1.65647819 -0.131380439 0.00180668328)
(1.66784309 -0.15066927 0.00142545697)
(1.68447231 -0.169966071 0.00104730407)
(1.70703637 -0.188262485 0.000669276785)
(1.73607489 -0.204121812 0.00028719976)
(1.77178908 -0.215625823 -0.00010214577)
(1.81375052 -0.220400784 -0.000497489554)
(1.86054559 -0.215798219 -0.000888523258)
(1.90943592 -0.199317011 -0.00124719657)
(1.95622298 -0.169353798 -0.00152557273)
(4.39467644 0.00159871475 0.341426222)
(3.85739113 0.0040222906 0.527130805)
(3.27308364 0.0054829065 0.417513738)
(2.69647235 0.00591612726 0.263322425)
(2.30535424 0.00525446133 0.147368129)
(2.07001766 0.00343996057 0.0751897825)
(1.92079008 0.000447989759 0.036123988)
(1.82427956 -0.00373886023 0.0173019206)
(1.76256216 -0.00915096935 0.00900008854)
(1.72192132 -0.0158337852 0.0056742625)
(1.69350655 -0.0238483057 0.0044954627)
(1.67259762 -0.0332727806 0.00409157431)
(1.65676272 -0.0442022634 0.00387453378)
(1.64474578 -0.0567450779 0.00364232212)
(1.63597796 -0.0710159299 0.00335053984)
(1.63032554 -0.0871234615 0.00300732565)
(1.62795213 -0.105148611 0.00263255431)
(1.62925908 -0.12510936 0.00224310264)
(1.63486668 -0.146906499 0.00184883175)
(1.64560489 -0.170244448 0.0014530036)
(1.66248821 -0.194521876 0.00105394591)
(1.6866474 -0.218690607 0.000646634466)
(1.71918383 -0.241091854 0.000224302929)
(1.76090399 -0.259299771 -0.000219287646)
(1.8118873 -0.270038306 -0.000685811249)
(1.87088806 -0.269305514 -0.00116557489)
(1.93461083 -0.252872858 -0.0016158469)
(1.99719066 -0.217461933 -0.00195676401)
(4.39461214 0.000995081873 0.341454258)
(3.85698959 0.00247106951 0.527210402)
(3.27206936 0.00322536671 0.417617081)
(2.69464456 0.00314261195 0.263419888)
(2.3026172 0.00212066748 0.147452384)
(2.06630321 7.49910424e-05 0.0752657492)
(1.91602536 -0.00304629527 0.0361966875)
(1.81839428 -0.00728727818 0.017373626)
(1.75548237 -0.012707168 0.00907121184)
(1.71356036 -0.0193868494 0.00574437468)
(1.68376296 -0.0274294102 0.00456410399)
(1.66135366 -0.0369629245 0.00415845182)
(1.64388327 -0.0481430212 0.00393959844)
(1.63008051 -0.061153236 0.00370554336)
(1.61936911 -0.0762026234 0.00341158223)
(1.61162408 -0.0935181839 0.00306526254)
(1.60704698 -0.113327658 0.00268560074)
(1.60612535 -0.135826513 0.00228833792)
(1.60964076 -0.161120515 0.00188193443)
(1.6186948 -0.189132273 0.00146804501)
(1.63472627 -0.219457498 0.00104323589)
(1.65948524 -0.251156885 0.000600752521)
(1.69491091 -0.282476944 0.000132512262)
(1.74283241 -0.310515509 -0.000368319062)
(1.80437861 -0.330902853 -0.000902472852)
(1.87904706 -0.337699465 -0.00146051275)
(1.96323917 -0.323786886 -0.00198237435)
(2.04897374 -0.282648359 -0.00237887669)
(4.39455449 0.000518575211 0.341480464)
(3.8566266 0.0012501626 0.527283316)
(3.27114618 0.00145697217 0.417710652)
(2.69297426 0.000985794466 0.263507555)
(2.30010542 -0.000288580011 0.147527015)
(2.06287265 -0.00246960162 0.0753322426)
(1.91159045 -0.00562947503 0.0362611615)
(1.81286857 -0.00983128386 0.0174383472)
(1.74876804 -0.0151577745 0.00913571552)
(1.70553894 -0.0217196101 0.00580807949)
(1.67429266 -0.029656174 0.00462653224)
(1.65026506 -0.0391409492 0.00421926508)
(1.63097428 -0.0503880933 0.00399864466)
(1.61511374 -0.0636581364 0.00376259925)
(1.60207376 -0.079262609 0.00346596101)
(1.59170575 -0.0975653141 0.0031154175)
(1.58421115 -0.118975539 0.002728701)
(1.58012343 -0.14392583 0.00231979996)
(1.58035161 -0.172822647 0.001894971)
(1.58625904 -0.205951681 0.00145338054)
(1.59975464 -0.243311204 0.000989222413)
(1.62336098 -0.284338064 0.000494511568)
(1.66018958 -0.327486444 -3.72736275e-05)
(1.7136934 -0.369630015 -0.000604773388)
(1.78701046 -0.405346083 -0.00118742712)
(1.88161026 -0.426179228 -0.00174600677)
(1.99456929 -0.42039549 -0.00214465138)
(2.11584674 -0.375004558 -0.00238234574)
(4.39450414 0.000157546594 0.341505751)
(3.85630316 0.000330398209 0.527350657)
(3.27031393 0.000136728995 0.417794897)
(2.69146032 -0.000601436236 0.263585232)
(2.29781956 -0.0020209519 0.147592309)
(2.05973343 -0.00423574599 0.0753907705)
(1.90750475 -0.00733048833 0.0363189501)
(1.80773744 -0.0113816127 0.0174966578)
(1.74247455 -0.0164892405 0.00919387984)
(1.69793886 -0.0227858036 0.00586548917)
(1.66520949 -0.0304387063 0.00468265616)
(1.63948207 -0.0396588032 0.00427367041)
(1.61822445 -0.0507114884 0.00405099236)
(1.60007025 -0.0639290257 0.0038123019)
(1.58434252 -0.0797246592 0.00351166088)
(1.57082318 -0.098607106 0.00315437627)
(1.55965352 -0.121191641 0.00275603723)
(1.55133855 -0.1482008 0.00232753766)
(1.54683095 -0.180441727 0.00187099096)
(1.54767868 -0.218736686 0.00138059013)
(1.55622705 -0.263766288 0.000845697707)
(1.57585124 -0.315760096 0.000255939074)
(1.61115016 -0.373936192 -0.000391235459)
(1.66795437 -0.435596606 -0.00107556847)
(1.75288532 -0.494802164 -0.00174401734)
(1.87184366 -0.540466691 -0.00230727758)
(2.0257355 -0.554737986 -0.00242972664)
(2.20583323 -0.512285132 -0.00244032412)
(4.39446159 -9.82131081e-05 0.341530396)
(3.85602148 -0.000317538426 0.527412577)
(3.2695761 -0.00077914805 0.417869896)
(2.69010982 -0.00167056751 0.263653435)
(2.29577387 -0.00312998246 0.147649641)
(2.05691114 -0.00527435017 0.0754426747)
(1.90380925 -0.00819335318 0.0363704726)
(1.80306238 -0.011970811 0.017548653)
(1.73669116 -0.0167162091 0.00924564558)
(1.69088549 -0.0225740798 0.00591639953)
(1.65668397 -0.0297288113 0.00473213207)
(1.62922989 -0.0384160595 0.00432115867)
(1.60592308 -0.0489383472 0.0040958722)
(1.58531098 -0.0616845472 0.0038534259)
(1.56661031 -0.0771550159 0.00354663067)
(1.5494764 -0.0959928556 0.00317855314)
(1.5339084 -0.119020214 0.0027611139)
(1.52026894 -0.147276027 0.00229949891)
(1.50940404 -0.182045636 0.0017874495)
(1.50286556 -0.22485992 0.00120795305)
(1.50325539 -0.277416055 0.000537751661)
(1.51470646 -0.341323606 -0.000241708015)
(1.54347838 -0.417490991 -0.00112178606)
(1.59856009 -0.504962451 -0.00204207831)
(1.69204961 -0.598643608 -0.00291690339)
(1.83808604 -0.685360751 -0.00365379504)
(2.04920581 -0.73969911 -0.0040854919)
(2.33070813 -0.710073525 -0.00601436882)
(4.39442574 -0.000260024914 0.341552663)
(3.85578046 -0.000725735639 0.527466995)
(3.26893744 -0.00133801555 0.417934921)
(2.68893662 -0.0022778079 0.263712608)
(2.29399212 -0.00367765776 0.14769949)
(2.05444259 -0.00565006091 0.0754880062)
(1.90055952 -0.00828232992 0.0364155152)
(1.79892453 -0.0116585676 0.0175940223)
(1.73153311 -0.01588885 0.00929064633)
(1.68453877 -0.0211186943 0.00596040466)
(1.64893376 -0.0275356276 0.00477452124)
(1.61979969 -0.0353828097 0.00436123445)
(1.59445357 -0.0449782204 0.00413266342)
(1.57133283 -0.0567403846 0.0038850872)
(1.54950959 -0.0712239842 0.00356943836)
(1.52845145 -0.0891685915 0.00318534214)
(1.50791902 -0.11156405 0.0027387326)
(1.48798316 -0.139736282 0.00222466522)
(1.46915822 -0.175455335 0.0016202582)
(1.45267682 -0.221059628 0.000882472861)
(1.44097261 -0.279567866 -4.90472484e-05)
(1.43847815 -0.354683177 -0.00123377262)
(1.4528784 -0.450552929 -0.00268650204)
(1.49695256 -0.570778065 -0.00432368026)
(1.59110133 -0.715611056 -0.00601165951)
(1.76375356 -0.875201403 -0.00738813086)
(2.05607369 -1.01537992 -0.00900140218)