/*--------------------------------*- C++ -*----------------------------------*\
| =========                 |                                                 |
| \\      /  F ield         | foam-extend: Open Source CFD                    |
|  \\    /   O peration     | Version:     4.1                                |
|   \\  /    A nd           | Web:         http://www.foam-extend.org         |
|    \\/     M anipulation  |                                                 |
\*---------------------------------------------------------------------------*/
FoamFile
{
    version     2.0;
    format      ascii;
    class       volVectorField;
    location    "0.4";
    object      U_0;
}
// * * * * * * * * * * * * * * * * * * * * * * * * * * * * * * * * * * * * * //

dimensions      [0 1 -1 0 0 0 0];

internalField   nonuniform List<vector> 
35840
(
(3.9408603 0.268528645 0.261844363)
(3.20795352 0.371831821 0.357379742)
(2.43829608 0.266507154 0.249860633)
(1.72034758 0.156945156 0.141978554)
(1.29366868 0.0888170391 0.0772233173)
(1.05218234 0.0517248703 0.0439393637)
(0.893424705 0.0312050168 0.0270973853)
(0.78521404 0.0189932516 0.0180820824)
(0.711690573 0.0115213586 0.0131448944)
(0.660039965 0.00694571846 0.0104224471)
(0.62205648 0.00409070963 0.00881426866)
(0.593074736 0.00225792489 0.00773566143)
(0.5703105 0.00105711971 0.00691529738)
(0.55200738 0.000260706359 0.00623132687)
(0.537031576 -0.000270607423 0.00562904131)
(0.524627083 -0.000623078717 0.00508486144)
(0.514264117 -0.000850616507 0.00458871462)
(0.505549332 -0.000988377667 0.00413515496)
(0.498184195 -0.00105970782 0.00372037288)
(0.491927825 -0.00107959315 0.00334118315)
(0.486580354 -0.00105820257 0.00299456159)
(0.481972114 -0.00100305192 0.00267778615)
(0.477956318 -0.000920078042 0.00238858811)
(0.474404462 -0.000814232845 0.00212514916)
(0.471203261 -0.00068995798 0.00188607749)
(0.468252765 -0.000551510214 0.00167036205)
(0.465465299 -0.00040312945 0.00147730224)
(0.462764988 -0.00024907216 0.00130642183)
(4.52124953 0.409953571 0.331399957)
(4.20224579 0.638137627 0.509000264)
(3.63676238 0.543497281 0.40727473)
(2.94289252 0.391291759 0.261505415)
(2.41564825 0.267504809 0.152218768)
(2.06112467 0.181547025 0.0859706678)
(1.80859497 0.124040096 0.0502557542)
(1.62433174 0.0850753881 0.0317470524)
(1.49026571 0.0584721869 0.0220757938)
(1.390835 0.0403343518 0.0169194276)
(1.31480134 0.0278870296 0.0140023731)
(1.25513901 0.0192193973 0.0121454309)
(1.20734987 0.013084619 0.0107999489)
(1.16840403 0.00867248175 0.00972604539)
(1.13622369 0.00545256649 0.00881496067)
(1.10935605 0.00307793057 0.00801453973)
(1.08675008 0.00132092555 0.00729808389)
(1.06761903 2.96644529e-05 0.00665006394)
(1.05134623 -0.000898967973 0.00605952964)
(1.0374372 -0.00153613228 0.00551751983)
(1.02548669 -0.00193259121 0.00501654654)
(1.01515363 -0.00212592936 0.00455069701)
(1.00614364 -0.00214547075 0.004115542)
(0.998199618 -0.00201560879 0.00370785955)
(0.991094958 -0.00175799262 0.00332546846)
(0.984629127 -0.00139299634 0.00296710287)
(0.978625007 -0.000940620307 0.00263227475)
(0.972927496 -0.000420920405 0.00232110581)
(4.44213356 0.22136181 0.337952022)
(4.08278423 0.436517099 0.518819313)
(3.65713738 0.463117449 0.418089569)
(3.13712354 0.408855974 0.275889384)
(2.71978499 0.331890086 0.166458388)
(2.42182373 0.257599497 0.0961054827)
(2.1981068 0.195669239 0.0564759729)
(2.02636428 0.147045624 0.0358951803)
(1.89486852 0.109789128 0.0253567981)
(1.79246223 0.0816435451 0.0198194923)
(1.71059408 0.0605349066 0.0166884782)
(1.64383851 0.0447116558 0.0146494477)
(1.58864978 0.0327969843 0.0131043961)
(1.54252304 0.0237550168 0.011814505)
(1.50363878 0.0168297596 0.0106876414)
(1.47064996 0.0114833976 0.00968551534)
(1.44252812 0.00733942073 0.00878914606)
(1.41846375 0.00413572321 0.00798539173)
(1.39780259 0.00168904121 0.00726211805)
(1.38000546 -0.00013095806 0.00660748324)
(1.3646147 -0.00141895429 0.00601038616)
(1.35123868 -0.00224619134 0.00546104454)
(1.33953582 -0.00266878908 0.00495142262)
(1.32920405 -0.00273392329 0.00447528291)
(1.31997409 -0.00248413436 0.0040280588)
(1.31160495 -0.00196020579 0.00360668684)
(1.30388135 -0.00120298869 0.00320940467)
(1.29661232 -0.000254384485 0.00283551166)
(4.41370728 0.123370277 0.337929266)
(3.97527184 0.285996525 0.516843582)
(3.52614262 0.346943418 0.410945242)
(3.04826575 0.341764405 0.267056428)
(2.69650361 0.304729917 0.15868869)
(2.46049516 0.256422703 0.0893124948)
(2.28810558 0.208535923 0.0503497525)
(2.1560162 0.166252349 0.030649418)
(2.05357617 0.130851229 0.0211778562)
(1.97171702 0.102011515 0.0166844895)
(1.90395101 0.0788844328 0.0144674668)
(1.84658218 0.0604935803 0.0131693897)
(1.79744857 0.045911731 0.0121808465)
(1.75509494 0.0343387468 0.01128204)
(1.7184581 0.0251257612 0.010416259)
(1.68671692 0.0177702357 0.00958127959)
(1.65919976 0.0118955617 0.00878807445)
(1.63533481 0.00722544751 0.00804610971)
(1.61462511 0.0035592444 0.00735919345)
(1.59663353 0.000751206499 0.00672600697)
(1.58097124 -0.00130620279 0.0061419506)
(1.56728957 -0.00269513342 0.005601238)
(1.55527337 -0.00348139239 0.00509787108)
(1.5446358 -0.00372163103 0.00462639374)
(1.53511492 -0.00346879722 0.00418233697)
(1.52647147 -0.00277591373 0.00376238828)
(1.51848796 -0.0016985102 0.00336439095)
(1.51096854 -0.000295918846 0.00298723647)
(4.40562823 0.0838879678 0.338530349)
(3.9270935 0.205874528 0.518667562)
(3.43458228 0.264640107 0.40952606)
(2.9427375 0.27464567 0.261034124)
(2.60542913 0.257674844 0.15031164)
(2.39687821 0.22797351 0.080600329)
(2.25546181 0.194216878 0.042147769)
(2.15329426 0.161485289 0.023270377)
(2.07740111 0.132060052 0.0147416106)
(2.01793545 0.106591907 0.0111886745)
(1.96849295 0.0850099282 0.00984719333)
(1.92582247 0.066953509 0.00933281176)
(1.88833974 0.0519604259 0.00902025723)
(1.85517912 0.0395617073 0.00868537725)
(1.8258088 0.0293315079 0.00827913127)
(1.79985135 0.0209093069 0.00781352002)
(1.77698811 0.0140045256 0.00731544285)
(1.75691924 0.00839113548 0.00680955173)
(1.73935311 0.00389755959 0.00631295474)
(1.72400519 0.000395328081 0.00583516219)
(1.71060027 -0.00221253184 0.00538011668)
(1.69887327 -0.00400123632 0.00494861049)
(1.68856978 -0.00503238559 0.00453942516)
(1.67944699 -0.0053611074 0.00415045175)
(1.67127436 -0.00504175156 0.00377949919)
(1.66383474 -0.00413210963 0.00342474377)
(1.65692592 -0.00269626198 0.00308494837)
(1.6503626 -0.000806081535 0.00275953625)
(4.40178182 0.061358114 0.339164716)
(3.90241797 0.153224993 0.520513577)
(3.38074423 0.204412112 0.41009869)
(2.86921795 0.221083431 0.258747885)
(2.52751001 0.215751934 0.14597944)
(2.32477678 0.198088193 0.0755294757)
(2.19489624 0.174643311 0.0370219226)
(2.10723975 0.149799688 0.0183398057)
(2.04672992 0.125995205 0.0101165561)
(2.00216498 0.104297458 0.00691323911)
(1.96645558 0.0850511475 0.00592979822)
(1.93606049 0.0682594519 0.00577172502)
(1.90933222 0.053765983 0.00580767921)
(1.88548051 0.0413489339 0.00580467125)
(1.86412358 0.0307739074 0.00570615975)
(1.84506212 0.0218225314 0.00552018649)
(1.82815468 0.0143060397 0.00527271535)
(1.81326247 0.00806962106 0.00498957276)
(1.80023226 0.00299121105 0.00469036811)
(1.78889344 -0.00102308716 0.00438766183)
(1.77906386 -0.00404556121 0.00408882315)
(1.77054987 -0.00613309783 0.00379771032)
(1.76315246 -0.007334071 0.00351569811)
(1.75667028 -0.00769482626 0.00324281091)
(1.75090302 -0.00726520505 0.00297851792)
(1.74565495 -0.00610299807 0.0027222006)
(1.74073878 -0.00427712558 0.00247342596)
(1.73597972 -0.00186931998 0.00223209327)
(4.3995684 0.0466866766 0.339653548)
(3.8883047 0.117719683 0.521953685)
(3.34831976 0.161235574 0.411269198)
(2.82103737 0.180136686 0.25856583)
(2.47122132 0.181406623 0.144563264)
(2.26668183 0.171520876 0.0735006966)
(2.13924446 0.155421999 0.0347874171)
(2.05692534 0.136678412 0.0160494135)
(2.00344125 0.117532683 0.00782539698)
(1.96665834 0.0991921786 0.00464304838)
(1.93890364 0.0822316178 0.00368832991)
(1.91628169 0.0668788575 0.00357045912)
(1.89692999 0.0531765065 0.00366514985)
(1.87994348 0.0410731143 0.00374025862)
(1.86489881 0.0304758489 0.00373545038)
(1.85160361 0.0212806294 0.00365380385)
(1.83995194 0.0133887846 0.00351667792)
(1.82985457 0.00671543141 0.00334615638)
(1.82121184 0.0011925507 0.00315912171)
(1.81390505 -0.00323215189 0.00296651133)
(1.80779704 -0.00659815151 0.0027749646)
(1.80273193 -0.00893621213 0.00258790992)
(1.79853993 -0.0102744977 0.00240660799)
(1.79504071 -0.0106444116 0.0022311477)
(1.79204755 -0.0100860964 0.00206108655)
(1.78937216 -0.00865325679 0.00189582639)
(1.78683006 -0.00641678625 0.00173483756)
(1.78424656 -0.00346670813 0.00157778764)
(4.39821755 0.0366449721 0.340043113)
(3.87961772 0.0929720375 0.523109733)
(3.32762738 0.129546678 0.412495867)
(2.78861844 0.148158629 0.259133241)
(2.43114914 0.15290845 0.144408449)
(2.22290811 0.148073113 0.0729509466)
(2.0946539 0.137259876 0.034103377)
(2.01363901 0.123244751 0.0153192741)
(1.96288747 0.107935626 0.00705910026)
(1.9296947 0.0925129379 0.0038298798)
(1.90600767 0.0776551697 0.00281378333)
(1.88768526 0.063726652 0.00262810205)
(1.87269754 0.0509046812 0.00266075488)
(1.86002614 0.0392600813 0.0026877573)
(1.84917621 0.0288064293 0.00265176069)
(1.83991564 0.0195298797 0.00255571799)
(1.83212154 0.0114072066 0.00241934164)
(1.82570304 0.00441628891 0.00226242232)
(1.82056729 -0.00145877326 0.00209943363)
(1.81660844 -0.00622665603 0.00193943983)
(1.81369935 -0.0098895386 0.00178750728)
(1.81169361 -0.0124468951 0.00164565706)
(1.8104264 -0.0139008917 0.00151409355)
(1.80971728 -0.0142622237 0.00139209225)
(1.80937428 -0.013556178 0.00127851597)
(1.80919937 -0.011828261 0.00117212083)
(1.80899512 -0.00914862334 0.00107170718)
(1.8085726 -0.00561452094 0.000976197554)
(4.39732388 0.0293689457 0.340349793)
(3.87389662 0.0747876684 0.524005773)
(3.31374694 0.105394217 0.413536365)
(2.76611997 0.122591472 0.259833207)
(2.40223122 0.128954162 0.144688868)
(2.19008329 0.127294376 0.0729977367)
(2.059921 0.120186953 0.0340840013)
(1.97855219 0.109740248 0.0152898127)
(1.92856568 0.0975097084 0.00701680052)
(1.89687767 0.0845580857 0.00375640745)
(1.87517065 0.0715746187 0.00268820801)
(1.85913023 0.0589882076 0.00243475332)
(1.84660924 0.047058143 0.00239357028)
(1.83650851 0.0359388859 0.00234902871)
(1.82827853 0.0257223989 0.00224882008)
(1.82165194 0.0164654232 0.00209832748)
(1.81648495 0.00820728688 0.00191807289)
(1.81267555 0.000981179963 0.00172765068)
(1.81012664 -0.00517991525 0.00154094065)
(1.80872941 -0.0102404392 0.00136637774)
(1.80835515 -0.0141626327 0.0012081335)
(1.808853 -0.0169103455 0.00106743245)
(1.81004952 -0.0184542848 0.000943831069)
(1.81175042 -0.0187786135 0.000836034938)
(1.81374443 -0.0178883311 0.000742356795)
(1.8158093 -0.0158164237 0.000661012341)
(1.81772014 -0.012629643 0.000590199776)
(1.81925955 -0.00843188926 0.00052810703)
(4.3966994 0.0238527152 0.34058717)
(3.8699387 0.0608866525 0.524692113)
(3.3040631 0.0864708362 0.414370848)
(2.75005419 0.101812065 0.260484985)
(2.38095487 0.108641153 0.145088639)
(2.16519406 0.108833451 0.0732520786)
(2.03281865 0.104213707 0.0342997521)
(1.95039793 0.096361385 0.0155065217)
(1.90024644 0.0865113452 0.00723353137)
(1.86902137 0.0755728828 0.00395988255)
(1.84821157 0.0641893068 0.0028621024)
(1.83336911 0.0528014015 0.0025648734)
(1.82225548 0.0417078196 0.00247129494)
(1.81370965 0.0311137739 0.00237135975)
(1.80714113 0.021165157 0.00221669604)
(1.80225678 0.0119718653 0.00201504139)
(1.79889797 0.00362408722 0.00178820515)
(1.79695495 -0.00379690082 0.00155638201)
(1.79632724 -0.010212178 0.00133388141)
(1.79690317 -0.0155418864 0.00112923722)
(1.79855018 -0.0197059937 0.000946466783)
(1.80110938 -0.0226280445 0.000786703167)
(1.80439323 -0.024241274 0.000649479908)
(1.8081862 -0.0244967617 0.000533496959)
(1.81224822 -0.0233728606 0.000436974306)
(1.81632132 -0.020884782 0.000357876943)
(1.82013976 -0.0170927885 0.000294116957)
(1.82344339 -0.0121074063 0.000243652659)
(4.39624672 0.019526393 0.340770239)
(3.86709423 0.0499241556 0.525219602)
(3.2970728 0.0712790301 0.415029928)
(2.73826316 0.0846465293 0.261040078)
(2.36497385 0.0912621259 0.145483631)
(2.14603626 0.0924067669 0.0735507619)
(2.01145742 0.0893742406 0.0345711623)
(1.9276977 0.0833372776 0.0157785811)
(1.87690933 0.0752591816 0.00750729087)
(1.84557917 0.0658933429 0.00422741571)
(1.82505835 0.0558099459 0.00311295238)
(1.8107965 0.0454286769 0.00278937776)
(1.80048156 0.0350569663 0.00266279524)
(1.79290174 0.0249250621 0.00252644254)
(1.78743335 0.0152124434 0.00233431598)
(1.78376338 0.00606698185 0.00209560652)
(1.78172301 -0.00238100175 0.00183294666)
(1.7811992 -0.0100086543 0.00156718461)
(1.78209128 -0.0166938383 0.0013131368)
(1.78428828 -0.0223122901 0.00107946726)
(1.78765544 -0.0267385853 0.000870387287)
(1.79202595 -0.0298503469 0.000687329355)
(1.79719645 -0.0315358405 0.000530056827)
(1.80292549 -0.0317045092 0.000397430181)
(1.80893605 -0.0302995656 0.00028789958)
(1.81492289 -0.0273113287 0.000199710616)
(1.82056507 -0.0227893444 0.000130981001)
(1.82554366 -0.0168508236 7.96902051e-05)
(4.39590798 0.0160411886 0.340911824)
(3.86498114 0.0410562502 0.525627857)
(3.29186887 0.0588247356 0.415548911)
(2.72937942 0.0702603933 0.261496162)
(2.35271333 0.0762820589 0.145833117)
(2.13103884 0.0777852905 0.0738342364)
(1.99439232 0.0756914011 0.0348338633)
(1.90920071 0.0708667524 0.0160393221)
(1.85752917 0.0640538143 0.00776734933)
(1.82575893 0.0558631818 0.0044821237)
(1.80514869 0.0467828666 0.00335597039)
(1.79107404 0.0371931482 0.00301479951)
(1.78116666 0.0273900093 0.00286644763)
(1.77417488 0.0176098922 0.00270598626)
(1.76944906 0.00804981486 0.00248868051)
(1.76666154 -0.00111725585 0.00222439168)
(1.7656379 -0.00973022686 0.00193623868)
(1.76626622 -0.0176303381 0.00164551839)
(1.76845054 -0.0246547897 0.00136712515)
(1.77208459 -0.0306341306 0.00110982057)
(1.77703489 -0.0353932613 0.000877985908)
(1.78312896 -0.0387565596 0.00067328657)
(1.79014704 -0.0405573769 0.000495797544)
(1.79781777 -0.0406517789 0.000344801008)
(1.80581884 -0.0389357884 0.000219210457)
(1.81378446 -0.035364422 0.000117743545)
(1.82132062 -0.0299698609 3.89473072e-05)
(1.82802851 -0.0228751533 -1.88843188e-05)
(4.39564716 0.0131743359 0.341022176)
(3.8633641 0.0337385574 0.525947285)
(3.28788289 0.0484430426 0.415960065)
(2.72251319 0.0580620718 0.261867276)
(2.34309891 0.0632926597 0.146130298)
(2.11907764 0.0647715104 0.0740848554)
(1.98053932 0.0631581335 0.0350682955)
(1.89391726 0.0590905646 0.0162699398)
(1.84123716 0.0531353534 0.0079949814)
(1.80881943 0.0457785558 0.00470383995)
(1.78786498 0.0374266357 0.0035678385)
(1.77369996 0.0284116516 0.00321323724)
(1.76391678 0.0190054666 0.00304898834)
(1.75723569 0.00943733686 0.00287122636)
(1.75298959 -9.07845668e-05 0.00263581636)
(1.75084298 -0.00939157715 0.00235300608)
(1.75062241 -0.0182812349 0.00204623989)
(1.75222349 -0.0265703916 0.00173678715)
(1.75556126 -0.0340578296 0.00143939274)
(1.76054071 -0.0405273503 0.00116280469)
(1.7670358 -0.0457486784 0.000911499448)
(1.77487293 -0.0494833802 0.000687328787)
(1.78381766 -0.0514965702 0.000490678376)
(1.79356571 -0.0515747668 0.000321273829)
(1.80374032 -0.0495494073 0.000178575384)
(1.81389869 -0.0453241811 6.19479575e-05)
(1.82355011 -0.0389026323 -2.93641347e-05)
(1.8321868 -0.0304106851 -9.64299778e-05)
(4.39544098 0.0107787509 0.341109283)
(3.86209217 0.0276088489 0.526200893)
(3.28474607 0.0396785529 0.416289675)
(2.71707089 0.0476258133 0.262170137)
(2.33538707 0.0519796732 0.146379829)
(2.1093442 0.0531953645 0.0743006277)
(1.96908901 0.0517459824 0.0352715071)
(1.88107959 0.0480994201 0.0164687411)
(1.82733047 0.0426831519 0.00818966228)
(1.79413097 0.0358771123 0.00489235505)
(1.77264924 0.0280113204 0.00374758557)
(1.7581817 0.0193663568 0.00338192928)
(1.74829667 0.0101822451 0.00320509766)
(1.74169794 0.000671278884 0.00301381202)
(1.73771032 -0.00896981026 0.00276434581)
(1.7359994 -0.01854846 0.00246729499)
(1.73640126 -0.0278657237 0.002146024)
(1.73882761 -0.0367070737 0.00182146362)
(1.7432141 -0.0448350663 0.00150816095)
(1.74948731 -0.0519849448 0.00121475883)
(1.7575389 -0.0578646645 0.000945729543)
(1.76720292 -0.0621609639 0.000703036048)
(1.77823565 -0.0645530994 0.000487313965)
(1.79029939 -0.0647355252 0.000298711464)
(1.8029537 -0.0624496885 0.000137333157)
(1.81565874 -0.0575232495 3.41057164e-06)
(1.82779561 -0.0499122168 -0.000102780341)
(1.83870671 -0.0397381508 -0.000181258796)
(4.39527393 0.00875441682 0.341179238)
(3.86106529 0.0224192735 0.526405841)
(3.28221214 0.0322129091 0.416558063)
(2.71264818 0.0386425506 0.262419791)
(2.32905663 0.0421025261 0.146589557)
(2.10125364 0.0429149303 0.0744852324)
(1.95943716 0.0414172596 0.0354464641)
(1.87009639 0.0379495695 0.0166395139)
(1.81525038 0.0328291923 0.00835611237)
(1.78117604 0.0263463051 0.00505290804)
(1.75902592 0.0187610092 0.00390038878)
(1.74408157 0.0103019748 0.00352539001)
(1.73389951 0.00117234751 0.00333810653)
(1.72717739 -0.00844023248 0.00313575403)
(1.72324197 -0.0183527658 0.00287509062)
(1.72176964 -0.0283761084 0.00256666264)
(1.7226158 -0.0383042469 0.0022333789)
(1.72571981 -0.047903712 0.00189582578)
(1.73105128 -0.0569039744 0.00156830042)
(1.73857338 -0.0649904615 0.00125924828)
(1.74821138 -0.0718021881 0.000972994495)
(1.75982227 -0.076936543 0.000711467691)
(1.77316479 -0.0799641234 0.000475460949)
(1.78787223 -0.0804564181 0.000265520626)
(1.80343297 -0.0780280043 8.2489113e-05)
(1.81918664 -0.072392416 -7.22606436e-05)
(1.83434431 -0.0634264676 -0.000196930343)
(1.84804049 -0.0512318591 -0.000289829104)
(4.39513537 0.0070316528 0.34123662)
(3.86021542 0.0179963689 0.526574837)
(3.28011287 0.0258197779 0.4167806)
(2.70896474 0.0308862222 0.262628565)
(2.32373817 0.0334778923 0.146767355)
(2.0943806 0.0338149973 0.0746438201)
(1.95113257 0.0321337718 0.0355976824)
(1.86051446 0.0286767672 0.0167871377)
(1.80455737 0.023673239 0.00849972176)
(1.76953666 0.0173371475 0.00519119895)
(1.74660035 0.00986499738 0.00403192492)
(1.73102519 0.00143398507 0.00364889349)
(1.72036503 -0.00779353012 0.00345281888)
(1.71332062 -0.0176609304 0.00324161795)
(1.70922974 -0.0280071579 0.00297209882)
(1.70778873 -0.0386559447 0.00265432106)
(1.70888366 -0.0494037116 0.00231076282)
(1.71249544 -0.0600062348 0.0019616836)
(1.71864483 -0.0701653373 0.00162101277)
(1.72735227 -0.0795173194 0.00129681408)
(1.73860023 -0.0876257503 0.000993095327)
(1.75229311 -0.0939823273 0.000711566274)
(1.7682139 -0.0980205007 0.000452995605)
(1.78598023 -0.0991471368 0.000218223826)
(1.80500705 -0.0967967695 8.89118785e-06)
(1.82448758 -0.0905100553 -0.000172140612)
(1.84340789 -0.0800315807 -0.000320811338)
(1.86061096 -0.0654120918 -0.000432661015)
(4.39501792 0.00556090237 0.341284833)
(3.85949548 0.014216344 0.526717233)
(3.27833146 0.020335754 0.416968741)
(2.7058238 0.0241901606 0.262806083)
(2.31916788 0.0259665338 0.146919987)
(2.08841503 0.0258043886 0.0747813307)
(1.94383924 0.0238621995 0.0357295588)
(1.85198896 0.0203066535 0.0169160908)
(1.7949097 0.0152954695 0.00862515242)
(1.75888073 0.00897714534 0.00531193244)
(1.73505145 0.00148974462 0.00414668388)
(1.71869981 -0.00704076306 0.00375675832)
(1.70738374 -0.0164959623 0.00355374917)
(1.69981386 -0.0267565382 0.00333577444)
(1.69534564 -0.0376925616 0.00305920499)
(1.69370421 -0.0491517887 0.00273368064)
(1.69481788 -0.0609450691 0.0023813571)
(1.69872486 -0.0728292151 0.00202202384)
(1.70551811 -0.0844881009 0.00166906943)
(1.71530256 -0.0955138289 0.00132999805)
(1.72815108 -0.105391086 0.0010082673)
(1.74405298 -0.113489618 0.000705088104)
(1.76285272 -0.119071988 0.000420895273)
(1.78418142 -0.121325709 0.000156566982)
(1.8073899 -0.119429471 -8.55092214e-05)
(1.83150045 -0.112660672 -0.000300590937)
(1.85520309 -0.100542755 -0.000481288852)
(1.87692756 -0.0830153754 -0.000618758695)
(4.39491639 0.00430623328 0.341326376)
(3.85887255 0.0109892103 0.526839852)
(3.27678614 0.0156410562 0.417130915)
(2.70308651 0.0184303794 0.26295963)
(2.31515717 0.0194628185 0.147052853)
(2.08313181 0.0188124526 0.0749019212)
(1.93730918 0.0165764751 0.0358457991)
(1.84426115 0.0128612582 0.0170299946)
(1.78604678 0.00776536704 0.00873595627)
(1.74895039 0.00137994485 0.00541842124)
(1.72412474 -0.00621162779 0.0042478974)
(1.70685232 -0.0149342118 0.00385265011)
(1.69469857 -0.0247165917 0.00364454053)
(1.68638688 -0.0354840635 0.00342136153)
(1.68129503 -0.0471485362 0.00313919876)
(1.67918387 -0.0595952485 0.00280743358)
(1.68003483 -0.072665401 0.00244776163)
(1.68395985 -0.0861340985 0.00207937925)
(1.6911483 -0.0996839175 0.00171498463)
(1.70182376 -0.112875521 0.00136131619)
(1.71619472 -0.125118479 0.00102099079)
(1.73439058 -0.13564843 0.000694330649)
(1.75637788 -0.143520592 0.000380955496)
(1.78185679 -0.147634146 8.12900955e-05)
(1.81014688 -0.146805831 -0.000201810523)
(1.8400854 -0.13991137 -0.000461414969)
(1.86997796 -0.12610377 -0.000685502763)
(1.89766537 -0.105096406 -0.000858099629)
(4.39482715 0.00324103398 0.341363047)
(3.85832365 0.00824819349 0.526947601)
(3.27541977 0.0116462742 0.417273225)
(2.70065533 0.0135133904 0.263094572)
(2.31157249 0.013886143 0.147170056)
(2.07836992 0.0127849739 0.0750088293)
(1.93136317 0.0102578424 0.0359492519)
(1.83714226 0.0063622676 0.0171314649)
(1.77777642 0.00114671906 0.00883441396)
(1.73955311 -0.00534894639 0.0055128946)
(1.71362838 -0.0130925268 0.00433843762)
(1.69528911 -0.0220595246 0.00393946691)
(1.68210713 -0.0322301536 0.00372752094)
(1.67281849 -0.0435825824 0.00350034515)
(1.66682442 -0.0560827013 0.00321392622)
(1.66392522 -0.0696698265 0.00287728535)
(1.66416344 -0.0842365192 0.00251156706)
(1.66773993 -0.0996010602 0.00213526754)
(1.67496656 -0.115471793 0.00176026168)
(1.68622611 -0.131403511 0.00139231483)
(1.7019213 -0.146748306 0.00103287456)
(1.72240009 -0.160607333 0.000680896807)
(1.74784582 -0.171796098 0.000334538062)
(1.77812675 -0.178844652 -6.98437137e-06)
(1.8126093 -0.180064008 -0.000340927921)
(1.8499618 -0.173718539 -0.000658167353)
(1.88800545 -0.158339495 -0.000940370218)
(1.92374011 -0.133192021 -0.00115983501)
(4.39474769 0.00234504383 0.341396106)
(3.85783296 0.00594237529 0.527043927)
(3.27419311 0.00828290863 0.417399981)
(2.69846321 0.00936700168 0.263214742)
(2.30832171 0.00917372064 0.147274568)
(2.07401802 0.0076797773 0.075104393)
(1.92587729 0.00489333848 0.0360418292)
(1.83050159 0.000831268392 0.0172219422)
(1.76996546 -0.00450107677 0.00892194771)
(1.73055681 -0.011109302 0.00559762442)
(1.70343179 -0.0190090995 0.00442064468)
(1.68387723 -0.0282273059 0.00401889345)
(1.66946698 -0.0388000293 0.00380400838)
(1.65894555 -0.0507667188 0.0035738739)
(1.65173408 -0.0641608495 0.00328430389)
(1.64767062 -0.078995602 0.00294389187)
(1.64686148 -0.0952418193 0.00257316317)
(1.64960732 -0.112795492 0.00218983127)
(1.65636664 -0.131432069 0.00180481759)
(1.66772572 -0.150745483 0.00142270746)
(1.6843537 -0.170071876 0.00104347661)
(1.70692349 -0.18840256 0.000664238107)
(1.73597762 -0.204299526 0.000280964339)
(1.77172031 -0.215841767 -0.000109299678)
(1.81372559 -0.220650829 -0.000504895127)
(1.8605805 -0.216071368 -0.000895047976)
(1.90954382 -0.199593774 -0.00125129075)
(1.95640923 -0.169606595 -0.00152555039)
(4.39467632 0.00160221186 0.341426393)
(3.85739002 0.00403136783 0.527131155)
(3.27308037 0.00549635357 0.417514107)
(2.6964662 0.00593310195 0.263322745)
(2.30534487 0.00527438825 0.147368397)
(2.07000459 0.00346237662 0.0751900425)
(1.92077275 0.000472469794 0.0361242799)
(1.82425738 -0.00371274708 0.0173022361)
(1.76253441 -0.00912371852 0.00900040849)
(1.72188719 -0.0158059795 0.00567457527)
(1.69346513 -0.023820654 0.00449575158)
(1.67254786 -0.0332461833 0.00409181582)
(1.65670351 -0.0441778902 0.00387469396)
(1.6446759 -0.0567244628 0.00364234939)
(1.63589619 -0.0710010885 0.00335035685)
(1.63023072 -0.0871170283 0.00300681963)
(1.62784335 -0.105153995 0.00263156607)
(1.62913592 -0.125130898 0.00224141587)
(1.63472964 -0.146949583 0.00184616684)
(1.64545597 -0.170315558 0.00144902417)
(1.66233169 -0.194628409 0.00104829094)
(1.68649081 -0.218840354 0.000638996452)
(1.71903896 -0.241291878 0.000214571597)
(1.76078772 -0.259554427 -0.000230804715)
(1.8118215 -0.270346216 -0.000698102899)
(1.87089781 -0.269655575 -0.00117669086)
(1.93471959 -0.253240188 -0.00162287697)
(1.99741191 -0.217806386 -0.0019563673)
(4.39461202 0.000999029745 0.341454434)
(3.85698848 0.00248129959 0.527210755)
(3.27206608 0.00324055008 0.41761745)
(2.69463837 0.00316187289 0.263420206)
(2.30260772 0.00214341539 0.147452654)
(2.06628995 0.000100801606 0.0752660277)
(1.91600773 -0.00301777048 0.0361969926)
(1.8183716 -0.00725640701 0.0173739428)
(1.75545383 -0.012674362 0.00907152749)
(1.713525 -0.0193525819 0.00574467695)
(1.68371966 -0.0273942669 0.00456437459)
(1.66130114 -0.0369276739 0.00415866341)
(1.64382004 -0.0481087042 0.00393970956)
(1.63000489 -0.0611212819 0.00370548934)
(1.61927923 -0.0761750021 0.00341126313)
(1.61151798 -0.0934976002 0.00306452753)
(1.60692272 -0.113317794 0.0026842285)
(1.60598126 -0.135832313 0.00228601389)
(1.60947594 -0.161148498 0.00187822939)
(1.61850981 -0.189190804 0.00146240573)
(1.63452421 -0.219556908 0.00103500996)
(1.65927326 -0.251309211 0.000589283793)
(1.69470212 -0.282694907 0.000117355625)
(1.74264793 -0.310810198 -0.000387000019)
(1.80424893 -0.331279433 -0.000923292417)
(1.87901126 -0.338150388 -0.00148020048)
(1.96333894 -0.324282889 -0.00199537187)
(2.04924058 -0.283131171 -0.00237837227)
(4.39455436 0.000523003252 0.341480633)
(3.85662549 0.00126155168 0.527283653)
(3.27114295 0.00147387505 0.417711009)
(2.69296816 0.00100734356 0.263507868)
(2.30009607 -0.000262977873 0.147527301)
(2.06285956 -0.00244031663 0.0753325399)
(1.91157298 -0.00559678451 0.0362614676)
(1.81284597 -0.00979546528 0.0174386578)
(1.74873943 -0.0151191124 0.0091360199)
(1.70550323 -0.0216784217 0.00580836371)
(1.67424857 -0.0296128592 0.00462677647)
(1.65021105 -0.0390960593 0.00421943843)
(1.6309085 -0.0503424254 0.00399869787)
(1.61503402 -0.0636128629 0.00376245318)
(1.60197753 -0.079219457 0.00346548993)
(1.59159008 -0.0975268116 0.00311442547)
(1.58407281 -0.118945348 0.00272688937)
(1.57995909 -0.143909189 0.00231672482)
(1.58015825 -0.172826924 0.00188999321)
(1.58603473 -0.205987014 0.00144561904)
(1.59949989 -0.243391138 0.000977541037)
(1.62308083 -0.284479924 0.00047759458)
(1.65989673 -0.327710942 -6.06558279e-05)
(1.71341229 -0.369959204 -0.000635138258)
(1.78678171 -0.405798256 -0.0012234525)
(1.8814937 -0.426758789 -0.00178292162)
(1.99463961 -0.421075824 -0.002172429)
(2.11617748 -0.37570482 -0.00238684011)
(4.39450396 0.000162434886 0.341505854)
(3.85630197 0.00034291005 0.527350916)
(3.2703108 0.000155304728 0.417795216)
(2.69145451 -0.000577657577 0.263585534)
(2.29781063 -0.00199252973 0.147592602)
(2.05972088 -0.0042030115 0.075391064)
(1.90748794 -0.007293639 0.0363192466)
(1.80771558 -0.0113407992 0.0174969537)
(1.74244672 -0.016444588 0.00919416439)
(1.69790388 -0.0227374299 0.00586574787)
(1.66516596 -0.0303867614 0.00468286778)
(1.63942822 -0.0396035298 0.00427380062)
(1.61815814 -0.0506533102 0.00405098452)
(1.59998882 -0.0638686753 0.00381206266)
(1.58424269 -0.0796633663 0.00351103806)
(1.57070101 -0.0985468745 0.00315312526)
(1.55950429 -0.121135655 0.00275377109)
(1.55115685 -0.148154009 0.00232365512)
(1.54661089 -0.180411677 0.00186457849)
(1.5474146 -0.218734639 0.00137030214)
(1.55591486 -0.263808639 0.000829641674)
(1.57549106 -0.315869921 0.000231636497)
(1.61075077 -0.374144395 -0.000426641681)
(1.66754019 -0.435941493 -0.0011245705)
(1.75250634 -0.495324963 -0.00180710955)
(1.87158729 -0.541198536 -0.00237995258)
(2.02573376 -0.555671695 -0.00249772152)
(2.20625518 -0.513312841 -0.0024760536)
(4.39446137 -9.29534383e-05 0.341530422)
(3.85602024 -0.000303993327 0.527412745)
(3.26957315 -0.000758970319 0.417870165)
(2.69010448 -0.00164467349 0.263653715)
(2.29576563 -0.00309889002 0.147649916)
(2.05689952 -0.00523832506 0.0754429486)
(1.90379364 -0.00815249277 0.0363707481)
(1.803042 -0.0119251271 0.0175489248)
(1.73666507 -0.0166656452 0.00924590275)
(1.69085248 -0.0225185173 0.00591662692)
(1.65664258 -0.0296680937 0.00473230736)
(1.62917822 -0.0383500355 0.00432124506)
(1.60585876 -0.0488669375 0.00409580746)
(1.58523098 -0.0616078498 0.00385310523)
(1.56651076 -0.0770734718 0.00354587896)
(1.54935238 -0.0959075133 0.00317708051)
(1.5337537 -0.118933151 0.00275844493)
(1.52007585 -0.147191016 0.00229486166)
(1.50916321 -0.181969194 0.00177960586)
(1.50256627 -0.224802921 0.00119495122)
(1.50288653 -0.277396135 0.000516594006)
(1.51425914 -0.341368566 -0.0002754383)
(1.54295148 -0.41764306 -0.00117415908)
(1.59797088 -0.505282727 -0.00212064746)
(1.69145251 -0.599213105 -0.00302932108)
(1.83760084 -0.686269387 -0.00380365741)
(2.04905585 -0.740999236 -0.00426115013)
(2.33123414 -0.71160618 -0.00615068992)
(4.39442552 -0.000254442245 0.34155266)
(3.85577931 -0.000711260864 0.527467112)
(3.26893483 -0.00131638173 0.417935146)
(2.68893193 -0.00224999267 0.263712855)
(2.29398485 -0.00364414294 0.147699736)
(2.05443231 -0.00561102212 0.0754882534)
(1.90054569 -0.00823775972 0.0364157624)
(1.79890639 -0.0116083358 0.0175942632)
(1.73150977 -0.0158327063 0.0092908703)
(1.68450907 -0.0210562607 0.00596059671)
(1.64889625 -0.0274664025 0.00477465907)
(1.61975247 -0.0353061834 0.00436128074)
(1.59439419 -0.0448935044 0.00413255386)
(1.57125809 -0.0566468681 0.00388471126)
(1.54941524 -0.0711210362 0.00356860722)
(1.52833189 -0.0890558479 0.00318373456)
(1.50776682 -0.111441748 0.0027358037)
(1.48778848 -0.139605859 0.00221949226)
(1.46890814 -0.175320477 0.00161128045)
(1.45235474 -0.220928109 0.000867055849)
(1.44055799 -0.279454727 -7.53296305e-05)
(1.43794772 -0.354616104 -0.00127827513)
(1.45221077 -0.450581194 -0.00276134342)
(1.49614109 -0.570986515 -0.00444876213)
(1.59018364 -0.716139038 -0.00621890156)
(1.76286906 -0.876256883 -0.00772354563)