/*--------------------------------*- C++ -*----------------------------------*\
| =========                 |                                                 |
| \\      /  F ield         | foam-extend: Open Source CFD                    |
|  \\    /   O peration     | Version:     4.1                                |
|   \\  /    A nd           | Web:         http://www.foam-extend.org         |
|    \\/     M anipulation  |                                                 |
\*---------------------------------------------------------------------------*/
FoamFile
{
    version     2.0;
    format      ascii;
    class       volScalarField::DimensionedInternalField;
    location    "0.4";
    object      V0;
}
// * * * * * * * * * * * * * * * * * * * * * * * * * * * * * * * * * * * * * //

dimensions      [0 3 0 0 0 0 0];

value           nonuniform List<scalar> 
35840
(
1.00000011e-06
1.00000033e-06
1.00000057e-06
1.00000082e-06
1.00000109e-06
1.00000141e-06
1.00000178e-06
1.0000022e-06
1.00000269e-06
1.00000327e-06
1.00000393e-06
1.00000469e-06
1.00000555e-06
1.00000653e-06
1.00000761e-06
1.00000882e-06
1.00001012e-06
1.00001153e-06
1.00001302e-06
1.00001456e-06
1.00001615e-06
1.00001774e-06
1.00001929e-06
1.00002077e-06
1.00002213e-06
1.00002335e-06
1.00002437e-06
1.00002516e-06
1.00000011e-06
1.00000034e-06
1.00000058e-06
1.00000083e-06
1.00000112e-06
1.00000144e-06
1.00000182e-06
1.00000225e-06
1.00000276e-06
1.00000335e-06
1.00000404e-06
1.00000482e-06
1.00000572e-06
1.00000673e-06
1.00000787e-06
1.00000912e-06
1.00001049e-06
1.00001196e-06
1.00001353e-06
1.00001516e-06
1.00001683e-06
1.00001851e-06
1.00002015e-06
1.00002173e-06
1.00002318e-06
1.00002447e-06
1.00002555e-06
1.0000264e-06
1.00000012e-06
1.00000036e-06
1.00000061e-06
1.00000088e-06
1.00000119e-06
1.00000153e-06
1.00000193e-06
1.0000024e-06
1.00000295e-06
1.0000036e-06
1.00000434e-06
1.00000521e-06
1.0000062e-06
1.00000732e-06
1.00000858e-06
1.00000998e-06
1.00001152e-06
1.00001318e-06
1.00001496e-06
1.00001681e-06
1.00001872e-06
1.00002065e-06
1.00002254e-06
1.00002436e-06
1.00002604e-06
1.00002754e-06
1.0000288e-06
1.00002979e-06
1.00000013e-06
1.0000004e-06
1.00000067e-06
1.00000097e-06
1.00000131e-06
1.00000169e-06
1.00000215e-06
1.00000268e-06
1.0000033e-06
1.00000404e-06
1.0000049e-06
1.0000059e-06
1.00000706e-06
1.00000838e-06
1.00000987e-06
1.00001154e-06
1.00001339e-06
1.00001539e-06
1.00001754e-06
1.00001981e-06
1.00002215e-06
1.00002452e-06
1.00002687e-06
1.00002913e-06
1.00003123e-06
1.0000331e-06
1.00003469e-06
1.00003593e-06
1.00000015e-06
1.00000045e-06
1.00000076e-06
1.0000011e-06
1.00000148e-06
1.00000193e-06
1.00000245e-06
1.00000308e-06
1.00000381e-06
1.00000469e-06
1.00000572e-06
1.00000692e-06
1.00000833e-06
1.00000994e-06
1.00001178e-06
1.00001385e-06
1.00001615e-06
1.00001867e-06
1.00002139e-06
1.00002427e-06
1.00002727e-06
1.00003032e-06
1.00003336e-06
1.00003629e-06
1.00003903e-06
1.00004149e-06
1.00004358e-06
1.00004522e-06
1.00000017e-06
1.00000051e-06
1.00000087e-06
1.00000127e-06
1.00000171e-06
1.00000224e-06
1.00000286e-06
1.0000036e-06
1.00000449e-06
1.00000555e-06
1.00000681e-06
1.00000829e-06
1.00001003e-06
1.00001205e-06
1.00001436e-06
1.00001698e-06
1.00001992e-06
1.00002316e-06
1.00002668e-06
1.00003043e-06
1.00003436e-06
1.00003839e-06
1.00004241e-06
1.00004632e-06
1.00004998e-06
1.00005328e-06
1.00005608e-06
1.00005829e-06
1.0000002e-06
1.00000059e-06
1.00000101e-06
1.00000147e-06
1.000002e-06
1.00000262e-06
1.00000337e-06
1.00000426e-06
1.00000534e-06
1.00000664e-06
1.00000819e-06
1.00001004e-06
1.00001222e-06
1.00001476e-06
1.00001771e-06
1.00002107e-06
1.00002486e-06
1.00002907e-06
1.00003367e-06
1.00003862e-06
1.00004383e-06
1.0000492e-06
1.00005459e-06
1.00005985e-06
1.00006481e-06
1.00006929e-06
1.00007311e-06
1.00007612e-06
1.00000023e-06
1.00000069e-06
1.00000118e-06
1.00000172e-06
1.00000235e-06
1.00000309e-06
1.00000398e-06
1.00000507e-06
1.00000638e-06
1.00000798e-06
1.0000099e-06
1.00001221e-06
1.00001495e-06
1.00001818e-06
1.00002193e-06
1.00002625e-06
1.00003116e-06
1.00003665e-06
1.0000427e-06
1.00004925e-06
1.00005619e-06
1.00006339e-06
1.00007065e-06
1.00007778e-06
1.00008453e-06
1.00009064e-06
1.00009588e-06
1.00010002e-06
1.00000027e-06
1.0000008e-06
1.00000138e-06
1.00000201e-06
1.00000275e-06
1.00000363e-06
1.00000471e-06
1.00000602e-06
1.00000763e-06
1.00000959e-06
1.00001197e-06
1.00001485e-06
1.00001829e-06
1.00002237e-06
1.00002716e-06
1.00003272e-06
1.00003907e-06
1.00004624e-06
1.00005419e-06
1.00006286e-06
1.00007211e-06
1.00008177e-06
1.00009158e-06
1.00010125e-06
1.00011046e-06
1.00011883e-06
1.00012603e-06
1.00013173e-06
1.00000031e-06
1.00000093e-06
1.0000016e-06
1.00000234e-06
1.00000321e-06
1.00000426e-06
1.00000555e-06
1.00000713e-06
1.00000908e-06
1.00001148e-06
1.00001442e-06
1.00001799e-06
1.0000223e-06
1.00002746e-06
1.00003355e-06
1.00004066e-06
1.00004887e-06
1.0000582e-06
1.00006863e-06
1.00008009e-06
1.0000924e-06
1.00010535e-06
1.00011859e-06
1.00013173e-06
1.00014429e-06
1.00015577e-06
1.00016567e-06
1.00017354e-06
1.00000035e-06
1.00000107e-06
1.00000185e-06
1.00000271e-06
1.00000373e-06
1.00000497e-06
1.0000065e-06
1.0000084e-06
1.00001076e-06
1.00001368e-06
1.00001728e-06
1.00002169e-06
1.00002706e-06
1.00003352e-06
1.00004123e-06
1.0000503e-06
1.00006086e-06
1.00007295e-06
1.00008658e-06
1.00010167e-06
1.00011803e-06
1.00013535e-06
1.0001532e-06
1.00017101e-06
1.00018815e-06
1.00020389e-06
1.00021751e-06
1.00022837e-06
1.00000041e-06
1.00000123e-06
1.00000211e-06
1.00000311e-06
1.00000431e-06
1.00000576e-06
1.00000757e-06
1.00000983e-06
1.00001265e-06
1.00001618e-06
1.00002056e-06
1.00002598e-06
1.00003261e-06
1.00004066e-06
1.00005034e-06
1.00006185e-06
1.00007534e-06
1.00009093e-06
1.00010866e-06
1.00012846e-06
1.00015011e-06
1.00017321e-06
1.0001972e-06
1.00022133e-06
1.00024468e-06
1.00026624e-06
1.00028499e-06
1.00029998e-06
1.00000046e-06
1.0000014e-06
1.0000024e-06
1.00000355e-06
1.00000492e-06
1.00000661e-06
1.00000872e-06
1.00001139e-06
1.00001475e-06
1.00001898e-06
1.00002427e-06
1.00003085e-06
1.00003898e-06
1.00004894e-06
1.00006101e-06
1.00007548e-06
1.00009261e-06
1.00011259e-06
1.00013552e-06
1.00016136e-06
1.00018987e-06
1.00022057e-06
1.00025273e-06
1.00028532e-06
1.00031709e-06
1.00034661e-06
1.0003724e-06
1.00039309e-06
1.00000052e-06
1.00000157e-06
1.0000027e-06
1.000004e-06
1.00000556e-06
1.0000075e-06
1.00000996e-06
1.00001307e-06
1.00001702e-06
1.00002204e-06
1.00002837e-06
1.0000363e-06
1.00004618e-06
1.00005838e-06
1.0000733e-06
1.00009135e-06
1.00011292e-06
1.00013832e-06
1.00016776e-06
1.00020128e-06
1.00023862e-06
1.00027924e-06
1.00032219e-06
1.0003661e-06
1.00040924e-06
1.0004496e-06
1.00048506e-06
1.00051361e-06
1.00000057e-06
1.00000174e-06
1.000003e-06
1.00000446e-06
1.00000622e-06
1.00000843e-06
1.00001125e-06
1.00001484e-06
1.00001944e-06
1.00002531e-06
1.00003279e-06
1.00004226e-06
1.00005414e-06
1.00006893e-06
1.00008718e-06
1.00010949e-06
1.0001364e-06
1.00016842e-06
1.00020592e-06
1.00024907e-06
1.00029768e-06
1.00035112e-06
1.0004082e-06
1.00046716e-06
1.00052561e-06
1.00058073e-06
1.00062945e-06
1.00066885e-06
1.00000063e-06
1.00000191e-06
1.0000033e-06
1.00000492e-06
1.00000689e-06
1.00000937e-06
1.00001255e-06
1.00001664e-06
1.00002193e-06
1.00002872e-06
1.00003745e-06
1.00004859e-06
1.00006268e-06
1.00008042e-06
1.00010254e-06
1.00012981e-06
1.00016303e-06
1.00020298e-06
1.0002503e-06
1.00030538e-06
1.00036816e-06
1.000438e-06
1.00051348e-06
1.00059232e-06
1.0006713e-06
1.00074645e-06
1.00081337e-06
1.00086778e-06
1.00000068e-06
1.00000207e-06
1.00000359e-06
1.00000535e-06
1.00000752e-06
1.00001027e-06
1.00001382e-06
1.00001842e-06
1.0000244e-06
1.00003217e-06
1.00004221e-06
1.00005513e-06
1.00007163e-06
1.00009263e-06
1.0001191e-06
1.00015204e-06
1.00019254e-06
1.0002418e-06
1.00030086e-06
1.00037045e-06
1.0004508e-06
1.00054136e-06
1.00064053e-06
1.00074544e-06
1.00085184e-06
1.00095419e-06
1.00104614e-06
1.00112135e-06
1.00000073e-06
1.00000221e-06
1.00000384e-06
1.00000574e-06
1.00000809e-06
1.0000111e-06
1.000015e-06
1.0000201e-06
1.00002678e-06
1.00003551e-06
1.00004688e-06
1.00006166e-06
1.00008075e-06
1.00010521e-06
1.00013628e-06
1.00017539e-06
1.0002242e-06
1.00028425e-06
1.000357e-06
1.00044387e-06
1.00054563e-06
1.00066197e-06
1.00079126e-06
1.00093009e-06
1.00107296e-06
1.00121224e-06
1.00133877e-06
1.00144307e-06
1.00000076e-06
1.00000233e-06
1.00000404e-06
1.00000606e-06
1.00000857e-06
1.0000118e-06
1.00001602e-06
1.00002157e-06
1.0000289e-06
1.00003855e-06
1.00005124e-06
1.00006784e-06
1.00008947e-06
1.00011744e-06
1.00015332e-06
1.00019907e-06
1.0002568e-06
1.00032871e-06
1.00041716e-06
1.00052428e-06
1.00065154e-06
1.00079935e-06
1.00096638e-06
1.00114891e-06
1.00134012e-06
1.00152972e-06
1.00170449e-06
1.00185005e-06
1.00000079e-06
1.0000024e-06
1.00000418e-06
1.00000628e-06
1.00000892e-06
1.00001233e-06
1.00001681e-06
1.00002274e-06
1.00003063e-06
1.00004109e-06
1.00005495e-06
1.00007324e-06
1.00009727e-06
1.00012863e-06
1.00016935e-06
1.00022185e-06
1.0002888e-06
1.00037336e-06
1.00047903e-06
1.00060899e-06
1.00076586e-06
1.00095118e-06
1.00116461e-06
1.00140279e-06
1.00165793e-06
1.00191661e-06
1.00215987e-06
1.00236548e-06
1.0000008e-06
1.00000244e-06
1.00000424e-06
1.00000639e-06
1.0000091e-06
1.00001262e-06
1.00001728e-06
1.00002349e-06
1.0000318e-06
1.0000429e-06
1.00005772e-06
1.00007743e-06
1.00010355e-06
1.00013799e-06
1.00018318e-06
1.00024203e-06
1.00031814e-06
1.00041568e-06
1.00053914e-06
1.00069353e-06
1.00088362e-06
1.00111252e-06
1.00138165e-06
1.00168975e-06
1.00202938e-06
1.00238417e-06
1.00272756e-06
1.00302432e-06
1.00000079e-06
1.00000242e-06
1.00000421e-06
1.00000636e-06
1.00000908e-06
1.00001264e-06
1.00001737e-06
1.00002372e-06
1.00003226e-06
1.00004375e-06
1.0000592e-06
1.0000799e-06
1.00010758e-06
1.00014443e-06
1.00019327e-06
1.00025764e-06
1.00034193e-06
1.00045144e-06
1.00059226e-06
1.00077135e-06
1.00099591e-06
1.00127286e-06
1.00160801e-06
1.00200353e-06
1.00245504e-06
1.00294636e-06
1.00344235e-06
1.00388617e-06
1.00000076e-06
1.00000234e-06
1.00000408e-06
1.00000617e-06
1.00000883e-06
1.00001233e-06
1.00001701e-06
1.00002333e-06
1.00003187e-06
1.00004343e-06
1.00005907e-06
1.00008019e-06
1.00010865e-06
1.00014689e-06
1.00019806e-06
1.00026626e-06
1.00035667e-06
1.00047577e-06
1.00063148e-06
1.00083305e-06
1.00109122e-06
1.00141873e-06
1.00182882e-06
1.00233172e-06
1.00293213e-06
1.00362226e-06
1.00436331e-06
1.0050634e-06
1.00000072e-06
1.00000219e-06
1.00000384e-06
1.00000581e-06
1.00000834e-06
1.00001168e-06
1.00001616e-06
1.00002224e-06
1.0000305e-06
1.00004175e-06
1.00005706e-06
1.00007787e-06
1.00010612e-06
1.00014439e-06
1.00019607e-06
1.00026566e-06
1.00035902e-06
1.00048372e-06
1.00064943e-06
1.00086835e-06
1.00115619e-06
1.00153257e-06
1.00202125e-06
1.00265116e-06
1.00345108e-06
1.00443912e-06
1.00559397e-06
1.00677672e-06
1.00000065e-06
1.00000199e-06
1.00000348e-06
1.00000529e-06
1.0000076e-06
1.00001066e-06
1.0000148e-06
1.00002043e-06
1.00002811e-06
1.00003863e-06
1.00005301e-06
1.00007268e-06
1.00009954e-06
1.00013619e-06
1.0001861e-06
1.00025394e-06
1.00034595e-06
1.0004705e-06
1.00063878e-06
1.00086591e-06
1.00117262e-06
1.00158765e-06
1.00215123e-06
1.00292175e-06
1.00398271e-06
1.00542618e-06
1.00730357e-06
1.00943976e-06
1.00000056e-06
1.00000172e-06
1.00000302e-06
1.00000459e-06
1.00000661e-06
1.0000093e-06
1.00001293e-06
1.00001789e-06
1.0000247e-06
1.00003404e-06
1.00004688e-06
1.00006451e-06
1.00008873e-06
1.00012196e-06
1.00016752e-06
1.00022994e-06
1.00031542e-06
1.00043247e-06
1.00059302e-06
1.00081407e-06
1.00112079e-06
1.00155197e-06
1.00216996e-06
1.00307768e-06
1.00444825e-06
1.00656029e-06
1.00969287e-06
1.01365593e-06
1.00000046e-06
1.0000014e-06
1.00000246e-06
1.00000374e-06
1.0000054e-06
1.0000076e-06
1.0000106e-06
1.00001469e-06
1.00002032e-06
1.00002808e-06
1.00003877e-06
1.00005352e-06
1.00007384e-06
1.00010186e-06
1.00014047e-06
1.00019369e-06
1.00026708e-06
1.00036848e-06
1.00050919e-06
1.00070614e-06
1.00098606e-06
1.00139431e-06
1.00201342e-06
1.00300163e-06
1.00466332e-06
1.00756127e-06
1.0127086e-06
1.01940185e-06
1.00000034e-06
1.00000104e-06
1.00000182e-06
1.00000277e-06
1.000004e-06
1.00000564e-06
1.00000787e-06
1.00001093e-06
1.00001514e-06
1.00002095e-06
1.00002898e-06
1.00004009e-06
1.00005544e-06
1.00007666e-06
1.000106e-06
1.00014659e-06
1.00020281e-06
1.0002809e-06
1.00039002e-06
1.00054423e-06
1.00076668e-06
1.00109903e-06
1.00162384e-06
1.00251847e-06
1.00417574e-06
1.00737704e-06
1.01288601e-06
1.02886898e-06
1.00000032e-06
1.00000097e-06
1.00000164e-06
1.00000237e-06
1.00000318e-06
1.0000041e-06
1.00000516e-06
1.00000639e-06
1.00000782e-06
1.00000948e-06
1.0000114e-06
1.00001361e-06
1.00001611e-06
1.00001894e-06
1.0000221e-06
1.00002558e-06
1.00002938e-06
1.00003346e-06
1.00003777e-06
1.00004227e-06
1.00004686e-06
1.00005147e-06
1.00005598e-06
1.00006027e-06
1.00006424e-06
1.00006775e-06
1.00007071e-06
1.00007302e-06
1.00000033e-06
1.00000099e-06
1.00000168e-06
1.00000242e-06
1.00000324e-06
1.00000419e-06
1.00000527e-06
1.00000654e-06
1.00000801e-06
1.00000973e-06
1.00001171e-06
1.000014e-06
1.0000166e-06
1.00001954e-06
1.00002283e-06
1.00002647e-06
1.00003044e-06
1.00003472e-06
1.00003926e-06
1.00004399e-06
1.00004885e-06
1.00005372e-06
1.00005849e-06
1.00006305e-06
1.00006726e-06
1.00007101e-06
1.00007416e-06
1.00007662e-06
1.00000035e-06
1.00000105e-06
1.00000177e-06
1.00000256e-06
1.00000344e-06
1.00000445e-06
1.00000561e-06
1.00000698e-06
1.00000857e-06
1.00001044e-06
1.00001261e-06
1.00001511e-06
1.00001798e-06
1.00002124e-06
1.0000249e-06
1.00002897e-06
1.00003344e-06
1.00003826e-06
1.00004341e-06
1.0000488e-06
1.00005434e-06
1.00005993e-06
1.00006543e-06
1.00007069e-06
1.00007557e-06
1.00007992e-06
1.00008359e-06
1.00008647e-06
1.00000038e-06
1.00000115e-06
1.00000195e-06
1.00000282e-06
1.00000379e-06
1.00000492e-06
1.00000623e-06
1.00000777e-06
1.00000959e-06
1.00001173e-06
1.00001423e-06
1.00001713e-06
1.00002049e-06
1.00002432e-06
1.00002865e-06
1.0000335e-06
1.00003885e-06
1.00004467e-06
1.00005091e-06
1.00005748e-06
1.00006428e-06
1.00007117e-06
1.00007798e-06
1.00008452e-06
1.00009062e-06
1.00009606e-06
1.00010067e-06
1.00010429e-06
1.00000043e-06
1.0000013e-06
1.0000022e-06
1.00000319e-06
1.0000043e-06
1.0000056e-06
1.00000712e-06
1.00000892e-06
1.00001107e-06
1.0000136e-06
1.00001659e-06
1.0000201e-06
1.00002416e-06
1.00002885e-06
1.00003418e-06
1.00004019e-06
1.00004686e-06
1.00005418e-06
1.00006207e-06
1.00007044e-06
1.00007914e-06
1.00008801e-06
1.00009682e-06
1.00010533e-06
1.00011328e-06
1.00012041e-06
1.00012647e-06
1.00013122e-06
1.00000049e-06
1.00000149e-06
1.00000253e-06
1.00000367e-06
1.00000497e-06
1.00000649e-06
1.0000083e-06
1.00001045e-06
1.00001303e-06
1.0000161e-06
1.00001975e-06
1.00002406e-06
1.00002911e-06
1.00003496e-06
1.00004167e-06
1.00004929e-06
1.00005781e-06
1.00006721e-06
1.00007742e-06
1.00008832e-06
1.00009973e-06
1.00011141e-06
1.00012309e-06
1.00013442e-06
1.00014505e-06
1.00015462e-06
1.00016276e-06
1.00016917e-06
1.00000057e-06
1.00000172e-06
1.00000294e-06
1.00000428e-06
1.00000581e-06
1.00000761e-06
1.00000977e-06
1.00001237e-06
1.0000155e-06
1.00001927e-06
1.00002378e-06
1.00002914e-06
1.00003546e-06
1.00004285e-06
1.00005139e-06
1.00006114e-06
1.00007214e-06
1.00008435e-06
1.00009772e-06
1.00011207e-06
1.0001272e-06
1.00014278e-06
1.00015843e-06
1.0001737e-06
1.00018809e-06
1.00020108e-06
1.00021217e-06
1.00022092e-06
1.00000066e-06
1.00000201e-06
1.00000343e-06
1.000005e-06
1.00000681e-06
1.00000896e-06
1.00001156e-06
1.0000147e-06
1.00001852e-06
1.00002316e-06
1.00002874e-06
1.00003544e-06
1.00004339e-06
1.00005275e-06
1.00006365e-06
1.00007619e-06
1.00009043e-06
1.00010637e-06
1.00012393e-06
1.00014293e-06
1.00016307e-06
1.00018395e-06
1.00020505e-06
1.00022573e-06
1.00024531e-06
1.00026306e-06
1.00027826e-06
1.00029027e-06
1.00000077e-06
1.00000234e-06
1.00000399e-06
1.00000584e-06
1.00000798e-06
1.00001055e-06
1.00001366e-06
1.00001747e-06
1.00002213e-06
1.00002782e-06
1.00003474e-06
1.00004309e-06
1.00005308e-06
1.00006493e-06
1.00007883e-06
1.00009495e-06
1.0001134e-06
1.0001342e-06
1.00015728e-06
1.00018243e-06
1.00020928e-06
1.00023729e-06
1.00026577e-06
1.00029385e-06
1.00032056e-06
1.00034486e-06
1.00036575e-06
1.0003823e-06
1.00000089e-06
1.00000271e-06
1.00000464e-06
1.0000068e-06
1.00000933e-06
1.00001237e-06
1.0000161e-06
1.00002069e-06
1.00002636e-06
1.00003332e-06
1.00004185e-06
1.00005222e-06
1.00006473e-06
1.00007968e-06
1.00009735e-06
1.00011801e-06
1.00014183e-06
1.00016891e-06
1.00019918e-06
1.00023242e-06
1.00026817e-06
1.00030573e-06
1.00034416e-06
1.00038228e-06
1.00041873e-06
1.00045204e-06
1.00048078e-06
1.00050361e-06
1.00000103e-06
1.00000312e-06
1.00000535e-06
1.00000787e-06
1.00001084e-06
1.00001444e-06
1.00001887e-06
1.00002438e-06
1.00003122e-06
1.00003969e-06
1.00005015e-06
1.00006296e-06
1.00007853e-06
1.00009729e-06
1.00011964e-06
1.00014598e-06
1.00017661e-06
1.00021171e-06
1.00025127e-06
1.00029506e-06
1.00034254e-06
1.00039279e-06
1.00044458e-06
1.00049628e-06
1.000546e-06
1.00059167e-06
1.00063121e-06
1.00066272e-06
1.00000118e-06
1.00000357e-06
1.00000613e-06
1.00000904e-06
1.00001249e-06
1.00001673e-06
1.00002197e-06
1.00002851e-06
1.00003671e-06
1.00004695e-06
1.00005968e-06
1.00007539e-06
1.00009464e-06
1.00011801e-06
1.00014611e-06
1.00017949e-06
1.00021863e-06
1.00026389e-06
1.00031535e-06
1.0003728e-06
1.00043561e-06
1.00050265e-06
1.00057227e-06
1.00064227e-06
1.00071002e-06
1.00077259e-06
1.00082699e-06
1.00087048e-06
1.00000134e-06
1.00000406e-06
1.00000697e-06
1.00001029e-06
1.00001428e-06
1.00001918e-06
1.00002531e-06
1.00003305e-06
1.00004281e-06
1.00005508e-06
1.00007043e-06
1.00008954e-06
1.00011314e-06
1.00014203e-06
1.00017707e-06
1.00021906e-06
1.00026876e-06
1.00032673e-06
1.00039328e-06
1.00046826e-06
1.00055098e-06
1.00064008e-06
1.00073338e-06
1.00082794e-06
1.00092011e-06
1.00100575e-06
1.00108056e-06
1.00114057e-06
1.0000015e-06
1.00000455e-06
1.00000784e-06
1.00001161e-06
1.00001615e-06
1.00002178e-06
1.00002889e-06
1.00003793e-06
1.0000494e-06
1.00006397e-06
1.00008234e-06
1.00010536e-06
1.00013402e-06
1.00016942e-06
1.00021272e-06
1.00026511e-06
1.00032769e-06
1.0004014e-06
1.00048685e-06
1.00058409e-06
1.00069246e-06
1.00081031e-06
1.00093488e-06
1.00106226e-06
1.00118739e-06
1.00130444e-06
1.00140726e-06
1.00149005e-06
1.00000166e-06
1.00000505e-06
1.00000872e-06
1.00001294e-06
1.00001806e-06
1.00002448e-06
1.00003263e-06
1.00004305e-06
1.0000564e-06
1.00007347e-06
1.00009516e-06
1.00012264e-06
1.00015713e-06
1.00020004e-06
1.00025302e-06
1.00031775e-06
1.00039583e-06
1.00048874e-06
1.00059757e-06
1.00072276e-06
1.00086379e-06
1.0010188e-06
1.00118437e-06
1.00135533e-06
1.0015248e-06
1.00168455e-06
1.00182573e-06
1.0019399e-06
1.00000182e-06
1.00000555e-06
1.00000959e-06
1.00001427e-06
1.00001999e-06
1.00002719e-06
1.00003641e-06
1.00004829e-06
1.00006363e-06
1.00008336e-06
1.00010868e-06
1.000141e-06
1.00018191e-06
1.00023339e-06
1.00029758e-06
1.00037671e-06
1.00047311e-06
1.00058903e-06
1.00072633e-06
1.00088611e-06
1.00106821e-06
1.00127074e-06
1.00148959e-06
1.00171807e-06
1.0019469e-06
1.00216454e-06
1.00235826e-06
1.00251568e-06
1.00000197e-06
1.00000601e-06
1.0000104e-06
1.00001553e-06
1.00002183e-06
1.00002981e-06
1.00004011e-06
1.00005346e-06
1.00007082e-06
1.00009335e-06
1.00012251e-06
1.00015998e-06
1.00020789e-06
1.00026882e-06
1.00034563e-06
1.00044121e-06
1.00055874e-06
1.00070166e-06
1.00087298e-06
1.00107482e-06
1.00130782e-06
1.00157033e-06
1.00185766e-06
1.00216146e-06
1.00246936e-06
1.00276531e-06
1.00303099e-06
1.00324813e-06
1.0000021e-06
1.00000642e-06
1.00001113e-06
1.00001665e-06
1.00002349e-06
1.00003221e-06
1.00004353e-06
1.00005833e-06
1.0000777e-06
1.00010304e-06
1.00013606e-06
1.00017894e-06
1.00023433e-06
1.00030533e-06
1.00039548e-06
1.00050897e-06
1.00065057e-06
1.00082477e-06
1.00103578e-06
1.00128767e-06
1.00158259e-06
1.00191959e-06
1.00229382e-06
1.00269528e-06
1.00310792e-06
1.00350965e-06
1.00387405e-06
1.00417401e-06
1.00000221e-06
1.00000675e-06
1.00001172e-06
1.00001758e-06
1.00002487e-06
1.00003425e-06
1.00004649e-06
1.00006261e-06
1.00008387e-06
1.00011188e-06
1.00014869e-06
1.00019688e-06
1.00025964e-06
1.00034081e-06
1.00044491e-06
1.00057764e-06
1.00074514e-06
1.0009537e-06
1.00121017e-06
1.0015206e-06
1.00188918e-06
1.00231688e-06
1.00279956e-06
1.00332616e-06
1.00387666e-06
1.00442119e-06
1.00492174e-06
1.00533755e-06
1.00000228e-06
1.00000697e-06
1.00001213e-06
1.00001823e-06
1.00002588e-06
1.00003577e-06
1.00004877e-06
1.000066e-06
1.00008889e-06
1.00011926e-06
1.00015948e-06
1.00021255e-06
1.00028227e-06
1.00037327e-06
1.00049143e-06
1.00064372e-06
1.00083791e-06
1.0010831e-06
1.00138934e-06
1.00176573e-06
1.00221954e-06
1.00275489e-06
1.0033701e-06
1.00405473e-06
1.00478543e-06
1.00552301e-06
1.0062132e-06
1.00679373e-06
1.00000231e-06
1.00000707e-06
1.00001231e-06
1.00001855e-06
1.0000264e-06
1.00003663e-06
1.00005015e-06
1.00006818e-06
1.00009229e-06
1.00012451e-06
1.0001675e-06
1.0002247e-06
1.00030049e-06
1.00040043e-06
1.00053152e-06
1.00070224e-06
1.00092295e-06
1.00120564e-06
1.00156322e-06
1.00200988e-06
1.00255892e-06
1.00321845e-06
1.0039912e-06
1.00487166e-06
1.00583611e-06
1.00683575e-06
1.00779454e-06
1.00861569e-06
1.00000229e-06
1.00000701e-06
1.00001222e-06
1.00001846e-06
1.00002635e-06
1.00003667e-06
1.00005041e-06
1.00006884e-06
1.00009362e-06
1.00012697e-06
1.00017179e-06
1.00023188e-06
1.00031219e-06
1.00041911e-06
1.00056079e-06
1.00074746e-06
1.0009918e-06
1.00130903e-06
1.00171653e-06
1.00223389e-06
1.00288096e-06
1.0036759e-06
1.00463253e-06
1.00575258e-06
1.00701754e-06
1.0083752e-06
1.00972377e-06
1.01091075e-06
1.00000222e-06
1.00000678e-06
1.00001184e-06
1.00001791e-06
1.00002563e-06
1.00003579e-06
1.00004938e-06
1.00006769e-06
1.00009248e-06
1.00012602e-06
1.00017141e-06
1.00023271e-06
1.00031529e-06
1.00042622e-06
1.00057465e-06
1.00077239e-06
1.00103436e-06
1.00137912e-06
1.00182915e-06
1.00241029e-06
1.00315172e-06
1.00408667e-06
1.00524699e-06
1.00665164e-06
1.00829873e-06
1.01014785e-06
1.01207807e-06
1.01384943e-06
1.00000208e-06
1.00000637e-06
1.00001113e-06
1.00001687e-06
1.00002421e-06
1.0000339e-06
1.00004691e-06
1.00006454e-06
1.00008852e-06
1.00012117e-06
1.00016559e-06
1.00022598e-06
1.00030795e-06
1.00041894e-06
1.00056882e-06
1.00077053e-06
1.00104092e-06
1.00140156e-06
1.00187977e-06
1.00250924e-06
1.00333212e-06
1.00439844e-06
1.00576383e-06
1.00748779e-06
1.00961385e-06
1.01213915e-06
1.0149539e-06
1.0177008e-06
1.00000188e-06
1.00000577e-06
1.0000101e-06
1.00001534e-06
1.00002205e-06
1.00003095e-06
1.00004295e-06
1.00005928e-06
1.00008159e-06
1.0001121e-06
1.00015383e-06
1.0002109e-06
1.00028884e-06
1.00039514e-06
1.00053984e-06
1.00073641e-06
1.00100273e-06
1.00136257e-06
1.00184725e-06
1.00249813e-06
1.00336979e-06
1.00453366e-06
1.00608129e-06
1.00813075e-06
1.01082529e-06
1.01427026e-06
1.01842226e-06
1.02280497e-06
1.00000163e-06
1.000005e-06
1.00000876e-06
1.00001332e-06
1.00001918e-06
1.00002698e-06
1.00003753e-06
1.00005193e-06
1.00007167e-06
1.00009878e-06
1.00013603e-06
1.0001872e-06
1.00025745e-06
1.00035383e-06
1.00048591e-06
1.00066671e-06
1.00091394e-06
1.00125171e-06
1.0017131e-06
1.00234402e-06
1.00320943e-06
1.00440314e-06
1.00606265e-06
1.0083878e-06
1.01166359e-06
1.01625453e-06
1.02231681e-06
1.02919014e-06
1.00000133e-06
1.00000407e-06
1.00000714e-06
1.00001086e-06
1.00001566e-06
1.00002206e-06
1.00003075e-06
1.00004264e-06
1.00005898e-06
1.00008149e-06
1.00011252e-06
1.00015529e-06
1.00021426e-06
1.00029551e-06
1.00040742e-06
1.0005615e-06
1.00077363e-06
1.00106587e-06
1.00146935e-06
1.00202907e-06
1.00281261e-06
1.00392638e-06
1.00554581e-06
1.00796572e-06
1.01165673e-06
1.01728009e-06
1.02563446e-06
1.03498066e-06
1.00000098e-06
1.000003e-06
1.00000527e-06
1.00000803e-06
1.0000116e-06
1.00001636e-06
1.00002283e-06
1.00003171e-06
1.00004393e-06
1.0000608e-06
1.00008411e-06
1.00011632e-06
1.00016085e-06
1.00022238e-06
1.0003074e-06
1.00042489e-06
1.0005873e-06
1.00081212e-06
1.00112436e-06
1.00156095e-06
1.00217909e-06
1.00307352e-06
1.0044125e-06
1.0065109e-06
1.00994953e-06
1.01558221e-06
1.02344737e-06
1.04412501e-06
1.0000005e-06
1.00000151e-06
1.00000256e-06
1.00000369e-06
1.00000495e-06
1.00000638e-06
1.00000803e-06
1.00000995e-06
1.00001218e-06
1.00001477e-06
1.00001776e-06
1.00002119e-06
1.0000251e-06
1.0000295e-06
1.00003442e-06
1.00003985e-06
1.00004576e-06
1.00005211e-06
1.00005883e-06
1.00006583e-06
1.00007299e-06
1.00008017e-06
1.00008719e-06
1.00009388e-06
1.00010005e-06
1.00010553e-06
1.00011014e-06
1.00011373e-06
1.00000051e-06
1.00000154e-06
1.00000261e-06
1.00000377e-06
1.00000505e-06
1.00000652e-06
1.00000821e-06
1.00001018e-06
1.00001248e-06
1.00001515e-06
1.00001824e-06
1.0000218e-06
1.00002585e-06
1.00003043e-06
1.00003556e-06
1.00004123e-06
1.00004741e-06
1.00005408e-06
1.00006115e-06
1.00006852e-06
1.00007608e-06
1.00008366e-06
1.0000911e-06
1.0000982e-06
1.00010476e-06
1.00011059e-06
1.00011551e-06
1.00011934e-06
1.00000054e-06
1.00000163e-06
1.00000276e-06
1.00000399e-06
1.00000536e-06
1.00000692e-06
1.00000874e-06
1.00001087e-06
1.00001335e-06
1.00001626e-06
1.00001964e-06
1.00002354e-06
1.00002801e-06
1.00003309e-06
1.00003879e-06
1.00004513e-06
1.00005208e-06
1.0000596e-06
1.00006761e-06
1.000076e-06
1.00008464e-06
1.00009334e-06
1.0001019e-06
1.00011011e-06
1.00011771e-06
1.00012448e-06
1.0001302e-06
1.00013468e-06
1.00000059e-06
1.00000179e-06
1.00000304e-06
1.00000439e-06
1.00000591e-06
1.00000766e-06
1.0000097e-06
1.0000121e-06
1.00001493e-06
1.00001826e-06
1.00002216e-06
1.00002669e-06
1.00003191e-06
1.00003788e-06
1.00004463e-06
1.00005218e-06
1.00006051e-06
1.00006957e-06
1.00007929e-06
1.00008953e-06
1.00010012e-06
1.00011085e-06
1.00012145e-06
1.00013165e-06
1.00014114e-06
1.00014962e-06
1.0001568e-06
1.00016243e-06
1.00000067e-06
1.00000202e-06
1.00000343e-06
1.00000497e-06
1.0000067e-06
1.00000872e-06
1.00001109e-06
1.0000139e-06
1.00001724e-06
1.00002119e-06
1.00002584e-06
1.0000313e-06
1.00003764e-06
1.00004493e-06
1.00005324e-06
1.0000626e-06
1.00007299e-06
1.00008438e-06
1.00009667e-06
1.00010971e-06
1.00012326e-06
1.00013707e-06
1.00015079e-06
1.00016405e-06
1.00017644e-06
1.00018755e-06
1.00019697e-06
1.00020438e-06
1.00000077e-06
1.00000232e-06
1.00000394e-06
1.00000572e-06
1.00000775e-06
1.00001012e-06
1.00001292e-06
1.00001628e-06
1.00002029e-06
1.00002508e-06
1.00003077e-06
1.00003748e-06
1.00004534e-06
1.00005445e-06
1.00006491e-06
1.00007677e-06
1.00009004e-06
1.00010468e-06
1.00012058e-06
1.00013756e-06
1.00015533e-06
1.00017353e-06
1.00019171e-06
1.00020936e-06
1.00022592e-06
1.00024082e-06
1.00025351e-06
1.00026349e-06
1.00000089e-06
1.00000269e-06
1.00000458e-06
1.00000666e-06
1.00000905e-06
1.00001186e-06
1.00001522e-06
1.00001927e-06
1.00002414e-06
1.00003001e-06
1.00003704e-06
1.00004539e-06
1.00005523e-06
1.00006674e-06
1.00008004e-06
1.00009523e-06
1.00011235e-06
1.00013138e-06
1.0001522e-06
1.00017456e-06
1.00019811e-06
1.00022238e-06
1.00024676e-06
1.00027054e-06
1.00029295e-06
1.00031318e-06
1.00033046e-06
1.00034409e-06
1.00000103e-06
1.00000313e-06
1.00000533e-06
1.00000778e-06
1.00001061e-06
1.00001396e-06
1.000018e-06
1.0000229e-06
1.00002885e-06
1.00003607e-06
1.00004477e-06
1.00005519e-06
1.00006758e-06
1.00008216e-06
1.00009913e-06
1.00011867e-06
1.00014085e-06
1.00016568e-06
1.00019303e-06
1.00022262e-06
1.00025399e-06
1.00028651e-06
1.00031937e-06
1.00035158e-06
1.00038208e-06
1.00040972e-06
1.00043339e-06
1.0004521e-06
1.0000012e-06
1.00000364e-06
1.00000622e-06
1.00000909e-06
1.00001243e-06
1.00001643e-06
1.00002128e-06
1.00002721e-06
1.00003447e-06
1.00004334e-06
1.00005411e-06
1.00006711e-06
1.00008267e-06
1.00010113e-06
1.00012278e-06
1.00014789e-06
1.00017662e-06
1.00020902e-06
1.00024497e-06
1.00028414e-06
1.00032596e-06
1.00036959e-06
1.00041394e-06
1.00045767e-06
1.00049927e-06
1.00053712e-06
1.00056965e-06
1.00059543e-06
1.00000139e-06
1.00000422e-06
1.00000722e-06
1.00001059e-06
1.00001453e-06
1.00001927e-06
1.00002508e-06
1.00003223e-06
1.00004105e-06
1.0000519e-06
1.00006519e-06
1.00008134e-06
1.00010082e-06
1.0001241e-06
1.00015163e-06
1.0001838e-06
1.00022091e-06
1.00026308e-06
1.00031023e-06
1.000362e-06
1.00041767e-06
1.00047617e-06
1.00053603e-06
1.00059539e-06
1.00065215e-06
1.00070404e-06
1.00074879e-06
1.00078434e-06
1.0000016e-06
1.00000486e-06
1.00000834e-06
1.00001226e-06
1.00001688e-06
1.00002249e-06
1.0000294e-06
1.00003797e-06
1.00004862e-06
1.00006183e-06
1.00007811e-06
1.00009806e-06
1.00012232e-06
1.00015153e-06
1.00018635e-06
1.00022737e-06
1.00027507e-06
1.00032974e-06
1.00039136e-06
1.00045956e-06
1.0005335e-06
1.00061177e-06
1.00069241e-06
1.00077292e-06
1.00085035e-06
1.00092147e-06
1.00098304e-06
1.0010321e-06
1.00000183e-06
1.00000557e-06
1.00000955e-06
1.00001407e-06
1.00001946e-06
1.00002605e-06
1.00003421e-06
1.00004441e-06
1.00005718e-06
1.00007313e-06
1.00009295e-06
1.00011742e-06
1.0001474e-06
1.00018381e-06
1.00022756e-06
1.00027955e-06
1.00034053e-06
1.00041101e-06
1.00049115e-06
1.00058063e-06
1.00067845e-06
1.00078285e-06
1.00089126e-06
1.00100026e-06
1.00110574e-06
1.00120316e-06
1.00128786e-06
1.00135556e-06
1.00000208e-06
1.00000632e-06
1.00001085e-06
1.00001603e-06
1.00002224e-06
1.00002988e-06
1.00003942e-06
1.00005148e-06
1.00006668e-06
1.00008578e-06
1.0001097e-06
1.00013946e-06
1.00017622e-06
1.00022122e-06
1.00027579e-06
1.00034119e-06
1.00041859e-06
1.00050889e-06
1.00061252e-06
1.00072928e-06
1.00085811e-06
1.00099684e-06
1.00114211e-06
1.00128933e-06
1.0014328e-06
1.00156609e-06
1.00168253e-06
1.00177592e-06
1.00000233e-06
1.00000708e-06
1.00001221e-06
1.00001808e-06
1.00002515e-06
1.00003392e-06
1.000045e-06
1.00005908e-06
1.00007695e-06
1.00009963e-06
1.00012825e-06
1.0001641e-06
1.00020874e-06
1.00026387e-06
1.00033131e-06
1.0004129e-06
1.00051037e-06
1.00062517e-06
1.00075823e-06
1.00090966e-06
1.00107838e-06
1.00126186e-06
1.00145578e-06