/*--------------------------------*- C++ -*----------------------------------*\
| =========                 |                                                 |
| \\      /  F ield         | foam-extend: Open Source CFD                    |
|  \\    /   O peration     | Version:     4.1                                |
|   \\  /    A nd           | Web:         http://www.foam-extend.org         |
|    \\/     M anipulation  |                                                 |
\*---------------------------------------------------------------------------*/
FoamFile
{
    version     2.0;
    format      ascii;
    class       volVectorField;
    location    "0.2";
    object      cellMotionU;
}
// * * * * * * * * * * * * * * * * * * * * * * * * * * * * * * * * * * * * * //

dimensions      [0 1 -1 0 0 0 0];

internalField   nonuniform List<vector> 
35840
(
(-1.28831176e-21 1.44881593e-09 -2.44989233e-22)
(-3.88078127e-21 4.36425843e-09 -7.37980017e-22)
(-6.56521375e-21 7.38307555e-09 -1.24845562e-21)
(-9.46121573e-21 1.06397102e-08 -1.79915817e-21)
(-1.26864849e-20 1.42664689e-08 -2.41246584e-21)
(-1.63585758e-20 1.83954994e-08 -3.11072818e-21)
(-2.05959761e-20 2.31599988e-08 -3.91647011e-21)
(-2.5518295e-20 2.86944248e-08 -4.85242718e-21)
(-3.12454077e-20 3.51335339e-08 -5.94138206e-21)
(-3.78954186e-20 4.26100915e-08 -7.20577638e-21)
(-4.55813299e-20 5.12511269e-08 -8.66707645e-21)
(-5.44063502e-20 6.11726591e-08 -1.03448804e-20)
(-6.44578468e-20 7.2472898e-08 -1.22557679e-20)
(-7.58000534e-20 8.5224046e-08 -1.44119135e-20)
(-8.84657811e-20 9.946298e-08 -1.68195112e-20)
(-1.02447547e-19 1.15181279e-07 -1.94770901e-20)
(-1.17688722e-19 1.32315271e-07 -2.23738336e-20)
(-1.34075473e-19 1.5073698e-07 -2.54880529e-20)
(-1.51430437e-19 1.70247015e-07 -2.87859895e-20)
(-1.6950913e-19 1.90570536e-07 -3.22211411e-20)
(-1.88000112e-19 2.1135744e-07 -3.57342987e-20)
(-2.06529731e-19 2.32187701e-07 -3.92544571e-20)
(-2.24672018e-19 2.52582488e-07 -4.27007004e-20)
(-2.41963827e-19 2.72021191e-07 -4.59850822e-20)
(-2.57924769e-19 2.89963818e-07 -4.90164119e-20)
(-2.72080892e-19 3.0587762e-07 -5.17047489e-20)
(-2.83990536e-19 3.19266141e-07 -5.39663044e-20)
(-2.93270473e-19 3.29698601e-07 -5.57283934e-20)
(-3.8813757e-21 4.36492718e-09 -7.38093055e-22)
(-1.16890947e-20 1.31453157e-08 -2.22282716e-21)
(-1.97704719e-20 2.22333098e-08 -3.75959089e-21)
(-2.8488461e-20 3.203689e-08 -5.41739621e-21)
(-3.81997112e-20 4.29569749e-08 -7.26405312e-21)
(-4.92603336e-20 5.53938838e-08 -9.36726475e-21)
(-6.20293778e-20 6.97512398e-08 -1.17952864e-20)
(-7.68695619e-20 8.643679e-08 -1.46170623e-20)
(-9.41448182e-20 1.05859645e-07 -1.79017563e-20)
(-1.14214241e-19 1.28423475e-07 -2.1717598e-20)
(-1.37422089e-19 1.54515272e-07 -2.61299798e-20)
(-1.6408364e-19 1.84489443e-07 -3.1198763e-20)
(-1.94466883e-19 2.18647233e-07 -3.69747964e-20)
(-2.28770377e-19 2.5721183e-07 -4.34957057e-20)
(-2.67098012e-19 3.00299989e-07 -5.07810967e-20)
(-3.09431905e-19 3.47891573e-07 -5.88274084e-20)
(-3.55605257e-19 3.99799031e-07 -6.76027618e-20)
(-4.05277522e-19 4.55639497e-07 -7.70422547e-20)
(-4.57914741e-19 5.14812689e-07 -8.70442428e-20)
(-5.12778158e-19 5.76488118e-07 -9.74681995e-20)
(-5.68924204e-19 6.39605084e-07 -1.08134739e-19)
(-6.25218507e-19 7.02888429e-07 -1.18828304e-19)
(-6.80365659e-19 7.64882009e-07 -1.29302843e-19)
(-7.32955142e-19 8.24000311e-07 -1.39290546e-19)
(-7.81522041e-19 8.78596701e-07 -1.48513379e-19)
(-8.24619371e-19 9.27044709e-07 -1.56696805e-19)
(-8.60897106e-19 9.6782685e-07 -1.63584766e-19)
(-8.89181887e-19 9.99624201e-07 -1.68954773e-19)
(-6.56740687e-21 7.38554317e-09 -1.24887267e-21)
(-1.97740595e-20 2.2237347e-08 -3.76027312e-21)
(-3.34408628e-20 3.7606363e-08 -6.35915818e-21)
(-4.81908414e-20 5.41929142e-08 -9.16398795e-21)
(-6.4636014e-20 7.26849893e-08 -1.22911238e-20)
(-8.3388029e-20 9.37701685e-08 -1.58568477e-20)
(-1.05064739e-19 1.18143008e-07 -1.99786089e-20)
(-1.30291995e-19 1.46507053e-07 -2.47753602e-20)
(-1.59699911e-19 1.79570639e-07 -3.03668433e-20)
(-1.93912879e-19 2.18035666e-07 -3.68716839e-20)
(-2.33532712e-19 2.62578643e-07 -4.440418e-20)
(-2.79114475e-19 3.1382352e-07 -5.30697016e-20)
(-3.31134958e-19 3.72306238e-07 -6.29586909e-20)
(-3.89954238e-19 4.38431518e-07 -7.41393538e-20)
(-4.5577153e-19 5.12423229e-07 -8.66492683e-20)
(-5.28577411e-19 5.94270685e-07 -1.00486312e-19)
(-6.08105503e-19 6.83674331e-07 -1.15599498e-19)
(-6.93787748e-19 7.79995484e-07 -1.31880496e-19)
(-7.84718274e-19 8.82215726e-07 -1.49156812e-19)
(-8.79631424e-19 9.88912232e-07 -1.67187655e-19)
(-9.76899581e-19 1.09825534e-06 -1.85663584e-19)
(-1.07455568e-18 1.20803389e-06 -2.04210836e-19)
(-1.17034376e-18 1.31571206e-06 -2.22400981e-19)
(-1.26179855e-18 1.41851878e-06 -2.39766061e-19)
(-1.34635183e-18 1.51356734e-06 -2.55818799e-19)
(-1.42146001e-18 1.59799879e-06 -2.70076797e-19)
(-1.48474414e-18 1.66913917e-06 -2.82089054e-19)
(-1.534131e-18 1.72465819e-06 -2.91462664e-19)
(-9.46574122e-21 1.0644803e-08 -1.80001874e-21)
(-2.84977906e-20 3.20473907e-08 -5.41917032e-21)
(-4.81979532e-20 5.42009207e-08 -9.16534032e-21)
(-6.94840909e-20 7.81371405e-08 -1.32130445e-20)
(-9.32587669e-20 1.04870651e-07 -1.77338793e-20)
(-1.20426309e-19 1.35418047e-07 -2.28997614e-20)
(-1.51903766e-19 1.70810225e-07 -2.88850045e-20)
(-1.8862472e-19 2.12096666e-07 -3.58670363e-20)
(-2.31534832e-19 2.60340419e-07 -4.40255416e-20)
(-2.81577984e-19 3.16602524e-07 -5.35398171e-20)
(-3.39671994e-19 3.81914706e-07 -6.45841415e-20)
(-4.06673122e-19 4.57239458e-07 -7.73210153e-20)
(-4.83329075e-19 5.43417216e-07 -9.1892217e-20)
(-5.70221013e-19 6.41101149e-07 -1.08407771e-19)
(-6.67696114e-19 7.50681351e-07 -1.26933132e-19)
(-7.75793651e-19 8.72201755e-07 -1.47475146e-19)
(-8.94169152e-19 1.00527489e-06 -1.69967668e-19)
(-1.02202284e-18 1.14900145e-06 -1.94258012e-19)
(-1.15804013e-18 1.30190346e-06 -2.20095714e-19)
(-1.30035296e-18 1.46188088e-06 -2.47125283e-19)
(-1.44653112e-18 1.62620182e-06 -2.74884653e-19)
(-1.59361168e-18 1.79153577e-06 -3.02810891e-19)
(-1.73817254e-18 1.95403619e-06 -3.30254258e-19)
(-1.87645216e-18 2.10947518e-06 -3.56501011e-19)
(-2.0045127e-18 2.2534268e-06 -3.80804394e-19)
(-2.11843808e-18 2.38148964e-06 -4.02422177e-19)
(-2.21455283e-18 2.48953277e-06 -4.20658084e-19)
(-2.28964354e-18 2.57394456e-06 -4.34903647e-19)
(-1.26939221e-20 1.427484e-08 -2.41388008e-21)
(-3.82164684e-20 4.29758398e-08 -7.26723964e-21)
(-6.46529707e-20 7.27040843e-08 -1.22943482e-20)
(-9.3269643e-20 1.04882903e-07 -1.77359474e-20)
(-1.25314222e-19 1.40914919e-07 -2.38292489e-20)
(-1.62041899e-19 1.82211149e-07 -3.08128559e-20)
(-2.04732661e-19 2.30210483e-07 -3.89300498e-20)
(-2.54698651e-19 2.86387954e-07 -4.84301757e-20)
(-3.1327992e-19 3.52249951e-07 -5.95678173e-20)
(-3.81826856e-19 4.29314454e-07 -7.25994369e-20)
(-4.61667679e-19 5.19074485e-07 -8.77771717e-20)
(-5.54059615e-19 6.22943193e-07 -1.05339528e-19)
(-6.60122981e-19 7.42179756e-07 -1.25498832e-19)
(-7.80758468e-19 8.77796369e-07 -1.48425485e-19)
(-9.16549412e-19 1.03044839e-06 -1.74229392e-19)
(-1.06765289e-18 1.20031194e-06 -2.02939282e-19)
(-1.2336859e-18 1.38695596e-06 -2.3448112e-19)
(-1.41361545e-18 1.58921873e-06 -2.68657316e-19)
(-1.60566399e-18 1.80510167e-06 -3.05128888e-19)
(-1.80724355e-18 2.03169534e-06 -3.43403115e-19)
(-2.01493271e-18 2.26515367e-06 -3.82829373e-19)
(-2.22450967e-18 2.5007312e-06 -4.22605633e-19)
(-2.43105166e-18 2.73289488e-06 -4.61797531e-19)
(-2.62910522e-18 2.95551546e-06 -4.9937083e-19)
(-2.81292429e-18 3.16213512e-06 -5.34236653e-19)
(-2.97676409e-18 3.34629761e-06 -5.6530715e-19)
(-3.11520947e-18 3.50191728e-06 -5.91557577e-19)
(-3.22350938e-18 3.6236548e-06 -6.12089401e-19)
(-1.63694358e-20 1.84077258e-08 -3.11279326e-21)
(-4.92860375e-20 5.54228277e-08 -9.37215249e-21)
(-8.34173601e-20 9.38032075e-08 -1.58624251e-20)
(-1.20451589e-19 1.35446533e-07 -2.29045685e-20)
(-1.62057263e-19 1.82228466e-07 -3.08157772e-20)
(-2.09921605e-19 2.36045688e-07 -3.99167568e-20)
(-2.6577718e-19 2.98845846e-07 -5.05367728e-20)
(-3.31415134e-19 3.72642423e-07 -6.3016145e-20)
(-4.08682664e-19 4.59511878e-07 -7.77057361e-20)
(-4.99462202e-19 5.61570216e-07 -9.49629572e-20)
(-6.05629834e-19 6.80926219e-07 -1.15143822e-19)
(-7.28990602e-19 8.19608688e-07 -1.38590601e-19)
(-8.71189012e-19 9.79465808e-07 -1.65614769e-19)
(-1.03359439e-18 1.16203626e-06 -1.96475176e-19)
(-1.21716287e-18 1.36839406e-06 -2.31351807e-19)
(-1.42228056e-18 1.59897234e-06 -2.70316001e-19)
(-1.64859615e-18 1.85337519e-06 -3.13298722e-19)
(-1.89485518e-18 2.13019147e-06 -3.60059208e-19)
(-2.15875211e-18 2.42682872e-06 -4.1015712e-19)
(-2.43682026e-18 2.73938955e-06 -4.62931943e-19)
(-2.72438114e-18 3.06261484e-06 -5.17493749e-19)
(-3.0155744e-18 3.38991762e-06 -5.72729322e-19)
(-3.30348577e-18 3.7135269e-06 -6.27326828e-19)
(-3.58038215e-18 4.02475193e-06 -6.79820716e-19)
(-3.83805158e-18 4.3143643e-06 -7.28656327e-19)
(-4.06823164e-18 4.5730792e-06 -7.72270979e-19)
(-4.2630948e-18 4.79210081e-06 -8.09185593e-19)
(-4.41574747e-18 4.96368284e-06 -8.38098619e-19)
(-2.06107419e-20 2.31766264e-08 -3.91927786e-21)
(-6.20656125e-20 6.97920523e-08 -1.18021765e-20)
(-1.0510936e-19 1.18193282e-07 -1.99870934e-20)
(-1.51947703e-19 1.70859747e-07 -2.8893359e-20)
(-2.04768831e-19 2.30251262e-07 -3.89369271e-20)
(-2.65799055e-19 2.98870514e-07 -5.05409319e-20)
(-3.37342796e-19 3.79307979e-07 -6.41432595e-20)
(-4.21805251e-19 4.74267381e-07 -8.02008163e-20)
(-5.2169402e-19 5.86567478e-07 -9.91897862e-20)
(-6.39596049e-19 7.19116108e-07 -1.21601183e-19)
(-7.78126412e-19 8.7485255e-07 -1.47931034e-19)
(-9.39844884e-19 1.05665369e-06 -1.78664443e-19)
(-1.1271371e-18 1.26720037e-06 -2.14252904e-19)
(-1.34205861e-18 1.50880209e-06 -2.55084602e-19)
(-1.58614304e-18 1.78318133e-06 -3.01447902e-19)
(-1.86017941e-18 2.09122329e-06 -3.53489065e-19)
(-2.1639689e-18 2.43270264e-06 -4.11166149e-19)
(-2.49607751e-18 2.80600566e-06 -4.74202268e-19)
(-2.85360738e-18 3.20787342e-06 -5.42042571e-19)
(-3.23201572e-18 3.63319856e-06 -6.13820439e-19)
(-3.6250144e-18 4.07491272e-06 -6.88339156e-19)
(-4.02458374e-18 4.52400228e-06 -7.64075353e-19)
(-4.42112949e-18 4.96968493e-06 -8.39209585e-19)
(-4.80380087e-18 5.39976719e-06 -9.11687271e-19)
(-5.1609703e-18 5.80118346e-06 -9.79309913e-19)
(-5.48085309e-18 6.16069227e-06 -1.03985231e-18)
(-5.75222155e-18 6.46567841e-06 -1.09119709e-18)
(-5.96514716e-18 6.70498666e-06 -1.13147394e-18)
(-2.55373329e-20 2.87158688e-08 -4.8560472e-21)
(-7.69180436e-20 8.64914105e-08 -1.46262809e-20)
(-1.30355891e-19 1.46579061e-07 -2.47875095e-20)
(-1.88693542e-19 2.12174248e-07 -3.58801219e-20)
(-2.54763671e-19 2.86461269e-07 -4.8442538e-20)
(-3.31468403e-19 3.727025e-07 -6.30262729e-20)
(-4.21837664e-19 4.7430394e-07 -8.02069784e-20)
(-5.29066855e-19 5.9485752e-07 -1.00591537e-19)
(-6.5652647e-19 7.38151849e-07 -1.24819801e-19)
(-8.07738594e-19 9.08145711e-07 -1.53560005e-19)
(-9.86316314e-19 1.10889987e-06 -1.87497116e-19)
(-1.19585881e-18 1.34445902e-06 -2.27312731e-19)
(-1.43979658e-18 1.61867777e-06 -2.73655487e-19)
(-1.72118255e-18 1.93498574e-06 -3.27101219e-19)
(-2.04242881e-18 2.29609165e-06 -3.88102816e-19)
(-2.40499381e-18 2.70363189e-06 -4.56930802e-19)
(-2.80903249e-18 3.15777734e-06 -5.33607017e-19)
(-3.25303039e-18 3.65682254e-06 -6.17835541e-19)
(-3.73345334e-18 4.19679233e-06 -7.08936883e-19)
(-4.24445431e-18 4.77111279e-06 -8.05793376e-19)
(-4.77768703e-18 5.37040229e-06 -9.06815197e-19)
(-5.32227934e-18 5.98244192e-06 -1.00993689e-18)
(-5.86501421e-18 6.59237914e-06 -1.11265331e-18)
(-6.3907519e-18 7.18320235e-06 -1.21210094e-18)
(-6.88310101e-18 7.73649486e-06 -1.30518565e-18)
(-7.32531158e-18 8.23343811e-06 -1.38875154e-18)
(-7.70132436e-18 8.65599032e-06 -1.45977801e-18)
(-7.99687553e-18 8.98812726e-06 -1.51558634e-18)
(-3.12684476e-20 3.51594942e-08 -5.94576286e-21)
(-9.42069056e-20 1.05929613e-07 -1.79135614e-20)
(-1.59789089e-19 1.79671154e-07 -3.03837992e-20)
(-2.31638635e-19 2.6045744e-07 -4.40452776e-20)
(-3.13386809e-19 3.52370474e-07 -5.95881394e-20)
(-4.08782929e-19 4.59624946e-07 -7.77247977e-20)
(-5.21775532e-19 5.86659406e-07 -9.92052818e-20)
(-6.56575331e-19 7.38206957e-07 -1.24829088e-19)
(-8.17678562e-19 9.19321385e-07 -1.55449466e-19)
(-1.00984514e-18 1.13535246e-06 -1.91969061e-19)
(-1.23803125e-18 1.39187005e-06 -2.35326859e-19)
(-1.50726085e-18 1.69451943e-06 -2.86473459e-19)
(-1.82242821e-18 2.04879928e-06 -3.46333236e-19)
(-2.18802222e-18 2.45975172e-06 -4.15751634e-19)
(-2.60776968e-18 2.93156131e-06 -4.95427137e-19)
(-3.08420049e-18 3.46706661e-06 -5.85828597e-19)
(-3.61814899e-18 4.06720003e-06 -6.87100715e-19)
(-4.20821785e-18 4.73038572e-06 -7.98962873e-19)
(-4.8502464e-18 5.45194282e-06 -9.20609417e-19)
(-5.53684266e-18 6.22356013e-06 -1.05062273e-18)
(-6.2570528e-18 7.03292547e-06 -1.18691311e-18)
(-6.99625054e-18 7.86360195e-06 -1.32670086e-18)
(-7.73632557e-18 8.69524006e-06 -1.46655521e-18)
(-8.45623139e-18 9.5041934e-06 -1.60250082e-18)
(-9.13291601e-18 1.02645643e-05 -1.73019547e-18)
(-9.74260522e-18 1.0949645e-05 -1.84517242e-18)
(-1.02623449e-17 1.15336506e-05 -1.94312934e-18)
(-1.06716492e-17 1.19935692e-05 -2.02023475e-18)
(-3.7919554e-20 4.26373044e-08 -7.21036511e-21)
(-1.14288522e-19 1.28507215e-07 -2.17317208e-20)
(-1.94037188e-19 2.18175782e-07 -3.68953178e-20)
(-2.81733977e-19 3.16778364e-07 -5.35694741e-20)
(-3.81996843e-19 4.29506092e-07 -7.2631753e-20)
(-4.99636344e-19 5.61766543e-07 -9.49960614e-20)
(-6.39755373e-19 7.19295742e-07 -1.21631468e-19)
(-8.07863023e-19 9.08286018e-07 -1.53583655e-19)
(-1.00991893e-18 1.13543567e-06 -1.91983084e-19)
(-1.25231148e-18 1.40792428e-06 -2.38040513e-19)
(-1.54179354e-18 1.73334012e-06 -2.93034325e-19)
(-1.88532828e-18 2.11950674e-06 -3.58280706e-19)
(-2.28984432e-18 2.57420746e-06 -4.35086503e-19)
(-2.76187715e-18 3.10478223e-06 -5.24680459e-19)
(-3.30709247e-18 3.71759201e-06 -6.28122122e-19)
(-3.92968841e-18 4.41734716e-06 -7.46188005e-19)
(-4.63169224e-18 5.20631765e-06 -8.79238212e-19)
(-5.41218249e-18 6.08345958e-06 -1.0270697e-18)
(-6.26649017e-18 7.04351863e-06 -1.18876671e-18)
(-7.1854616e-18 8.07620266e-06 -1.36256427e-18)
(-8.15489131e-18 9.16554559e-06 -1.54574537e-18)
(-9.15525228e-18 1.0289605e-05 -1.7345958e-18)
(-1.01618523e-17 1.14206383e-05 -1.9244401e-18)
(-1.11455233e-17 1.25258775e-05 -2.10977783e-18)
(-1.20738992e-17 1.35689641e-05 -2.28452858e-18)
(-1.29132535e-17 1.45120136e-05 -2.44237909e-18)
(-1.36307682e-17 1.53181633e-05 -2.5772066e-18)
(-1.41969995e-17 1.59543417e-05 -2.68353445e-18)
(-4.55939221e-20 5.12653855e-08 -8.66946952e-21)
(-1.37495311e-19 1.54597896e-07 -2.6143899e-20)
(-2.33711395e-19 2.6278002e-07 -4.44381493e-20)
(-3.39910856e-19 3.8218389e-07 -6.46295503e-20)
(-4.61932754e-19 5.19373245e-07 -8.78275609e-20)
(-6.05925228e-19 6.81259122e-07 -1.15199971e-19)
(-7.78414828e-19 8.75177604e-07 -1.47985853e-19)
(-9.86560943e-19 1.10917562e-06 -1.87543606e-19)
(-1.23822148e-18 1.39208449e-06 -2.35363003e-19)
(-1.54190564e-18 1.73346649e-06 -2.9305562e-19)
(-1.90675285e-18 2.14359077e-06 -3.62350053e-19)
(-2.34234234e-18 2.63321897e-06 -4.4505478e-19)
(-2.8584053e-18 3.21328138e-06 -5.43002323e-19)
(-3.46436318e-18 3.8943579e-06 -6.57960317e-19)
(-4.16870262e-18 4.68597577e-06 -7.91511631e-19)
(-4.97816225e-18 5.59569605e-06 -9.44899131e-19)
(-5.8967527e-18 6.62801327e-06 -1.11883959e-18)
(-6.92464107e-18 7.78310313e-06 -1.31331326e-18)
(-8.05696354e-18 9.05548966e-06 -1.52734186e-18)
(-9.28267903e-18 1.04327588e-05 -1.75877699e-18)
(-1.05836211e-17 1.18944942e-05 -2.00412913e-18)
(-1.19339418e-17 1.34116539e-05 -2.25847356e-18)
(-1.33001555e-17 1.49466192e-05 -2.5154713e-18)
(-1.4641967e-17 1.64541257e-05 -2.76753772e-18)
(-1.59140009e-17 1.7883205e-05 -3.00617709e-18)
(-1.70684233e-17 1.91801289e-05 -3.22247804e-18)
(-1.80582797e-17 2.02921587e-05 -3.40773383e-18)
(-1.88411984e-17 2.11717037e-05 -3.5541208e-18)
(-5.43150382e-20 6.10701222e-08 -1.03275163e-20)
(-1.64097736e-19 1.84505677e-07 -3.12014363e-20)
(-2.79399176e-19 3.14144243e-07 -5.31238224e-20)
(-4.07053744e-19 4.57668232e-07 -7.73933687e-20)
(-5.54454558e-19 6.23388229e-07 -1.05414598e-19)
(-7.29494374e-19 8.20176175e-07 -1.38686351e-19)
(-9.40356872e-19 1.05723045e-06 -1.78761744e-19)
(-1.19629336e-18 1.3449487e-06 -2.27395303e-19)
(-1.50764359e-18 1.69495074e-06 -2.86546168e-19)
(-1.88562127e-18 2.11983695e-06 -3.58336351e-19)
(-2.34252199e-18 2.63342144e-06 -4.45088887e-19)
(-2.89141218e-18 3.25038181e-06 -5.49267039e-19)
(-3.54585057e-18 3.98594589e-06 -6.73419301e-19)
(-4.31928133e-18 4.85520944e-06 -8.20061779e-19)
(-5.22424345e-18 5.87224803e-06 -9.91525677e-19)
(-6.27127053e-18 7.04888153e-06 -1.1897465e-18)
(-7.46754598e-18 8.39316433e-06 -1.41600807e-18)
(-8.81532665e-18 9.90761592e-06 -1.6706449e-18)
(-1.03101971e-17 1.15872615e-05 -1.95271618e-18)
(-1.19393102e-17 1.34176572e-05 -2.25968211e-18)
(-1.36798349e-17 1.53731478e-05 -2.58712551e-18)
(-1.5497905e-17 1.74156866e-05 -2.92857412e-18)
(-1.73483962e-17 1.94945852e-05 -3.2754834e-18)
(-1.91758477e-17 2.15475479e-05 -3.61743547e-18)
(-2.0916757e-17 2.35032486e-05 -3.94259001e-18)
(-2.25032949e-17 2.52855025e-05 -4.23838822e-18)
(-2.38682186e-17 2.68187843e-05 -4.49246147e-18)
(-2.49504536e-17 2.80344966e-05 -4.69364305e-18)
(-6.44804364e-20 7.24984708e-08 -1.22600609e-20)
(-1.9462406e-19 2.18824463e-07 -3.70046745e-20)
(-3.31430351e-19 3.72639181e-07 -6.30148438e-20)
(-4.83581118e-19 5.43701695e-07 -9.19401237e-20)
(-6.60617585e-19 7.42737158e-07 -1.25592832e-19)
(-8.72083678e-19 9.80473128e-07 -1.65784797e-19)
(-1.12805807e-18 1.26823736e-06 -2.14427911e-19)
(-1.44050267e-18 1.61947323e-06 -2.73789632e-19)
(-1.82314623e-18 2.04960808e-06 -3.46469608e-19)
(-2.29043472e-18 2.57487266e-06 -4.35198597e-19)
(-2.8588923e-18 3.21383006e-06 -5.43094743e-19)
(-3.54613239e-18 3.98626348e-06 -6.73472757e-19)
(-4.37091433e-18 4.91323946e-06 -8.2985088e-19)
(-5.35220915e-18 6.01605796e-06 -1.01576911e-18)
(-6.50831192e-18 7.31525551e-06 -1.23461589e-18)
(-7.85532359e-18 8.82890071e-06 -1.48933577e-18)
(-9.40534946e-18 1.05705722e-05 -1.78208494e-18)
(-1.11643165e-17 1.25469087e-05 -2.11381827e-18)
(-1.3129433e-17 1.47547582e-05 -2.48381504e-18)
(-1.52865247e-17 1.7178187e-05 -2.88919039e-18)
(-1.76075415e-17 1.97856808e-05 -3.32445097e-18)
(-2.00486728e-17 2.25280277e-05 -3.78117811e-18)
(-2.25495819e-17 2.53374574e-05 -4.24793218e-18)
(-2.50342855e-17 2.81286274e-05 -4.71046954e-18)
(-2.74141101e-17 3.08019419e-05 -5.15233999e-18)
(-2.95929065e-17 3.3249408e-05 -5.55588139e-18)
(-3.14742743e-17 3.53627489e-05 -5.90354914e-18)
(-3.29700109e-17 3.70428945e-05 -6.17942767e-18)
(-7.58434896e-20 8.52731139e-08 -1.44201706e-20)
(-2.28920845e-19 2.57381682e-07 -4.35243094e-20)
(-3.90222941e-19 4.38734715e-07 -7.41904324e-20)
(-5.70621248e-19 6.4155258e-07 -1.08483847e-19)
(-7.81483096e-19 8.78612779e-07 -1.48563209e-19)
(-1.0345036e-18 1.16306041e-06 -1.96647968e-19)
(-1.34272047e-18 1.50954837e-06 -2.55210375e-19)
(-1.72211606e-18 1.9360375e-06 -3.27278516e-19)
(-2.18939964e-18 2.4613025e-06 -4.16013175e-19)
(-2.76292737e-18 3.10596522e-06 -5.24879783e-19)
(-3.46542258e-18 3.89555105e-06 -6.58161275e-19)
(-4.32003166e-18 4.85605487e-06 -8.20204018e-19)
(-5.35267615e-18 6.01658421e-06 -1.01585755e-18)
(-6.58972628e-18 7.40674498e-06 -1.25002507e-18)
(-8.05760619e-18 9.05619916e-06 -1.52757907e-18)
(-9.78043055e-18 1.09920116e-05 -1.85290413e-18)
(-1.17777326e-17 1.32361005e-05 -2.22945901e-18)
(-1.40615366e-17 1.58019522e-05 -2.6592203e-18)
(-1.66326773e-17 1.86904894e-05 -3.14199428e-18)
(-1.94768335e-17 2.18856185e-05 -3.67469142e-18)
(-2.25605888e-17 2.53498045e-05 -4.25062876e-18)
(-2.58281832e-17 2.90204216e-05 -4.85898865e-18)
(-2.9199728e-17 3.28077456e-05 -5.48457672e-18)
(-3.25717347e-17 3.65955441e-05 -6.10802611e-18)
(-3.58207493e-17 4.0245157e-05 -6.70657092e-18)
(-3.88105658e-17 4.36035956e-05 -7.25544084e-18)
(-4.14028194e-17 4.65154423e-05 -7.72980325e-18)
(-4.34698342e-17 4.88372821e-05 -8.10702391e-18)
(-8.8510762e-20 9.95138493e-08 -1.68280622e-20)
(-2.67239113e-19 3.00459501e-07 -5.08079201e-20)
(-4.56020077e-19 5.12704072e-07 -8.66965153e-20)
(-6.68074902e-19 7.5110909e-07 -1.27005132e-19)
(-9.17109576e-19 1.03108044e-06 -1.74335859e-19)
(-1.21787958e-18 1.36920245e-06 -2.31488011e-19)
(-1.58699132e-18 1.78413789e-06 -3.01609073e-19)
(-2.04371427e-18 2.29753988e-06 -3.88346975e-19)
(-2.60872391e-18 2.93263746e-06 -4.95608353e-19)
(-3.30860346e-18 3.71929419e-06 -6.2840874e-19)
(-4.1709765e-18 4.68853549e-06 -7.9194277e-19)
(-5.22573298e-18 5.8739262e-06 -9.9180784e-19)
(-6.5096232e-18 7.31673285e-06 -1.23486401e-18)
(-8.05816662e-18 9.05683153e-06 -1.52768495e-18)
(-9.90946178e-18 1.11369916e-05 -1.87726209e-18)
(-1.20988595e-17 1.35968944e-05 -2.28997732e-18)
(-1.46567908e-17 1.64706972e-05 -2.77117458e-18)
(-1.76050404e-17 1.9782852e-05 -3.32444498e-18)
(-2.09513078e-17 2.3541999e-05 -3.95060635e-18)
(-2.46834768e-17 2.77345313e-05 -4.64665613e-18)
(-2.87634635e-17 3.23176836e-05 -5.40468817e-18)
(-3.31217995e-17 3.72134441e-05 -6.21100022e-18)
(-3.76540379e-17 4.23045122e-05 -7.04559738e-18)
(-4.22203104e-17 4.7433796e-05 -7.88232077e-18)
(-4.66494394e-17 5.24090272e-05 -8.68981719e-18)
(-5.0748684e-17 5.70137065e-05 -9.43347487e-18)
(-5.43191895e-17 6.10244589e-05 -1.00782532e-17)
(-5.71756077e-17 6.4233075e-05 -1.05920675e-17)
(-1.02489514e-19 1.15228833e-07 -1.94850681e-20)
(-3.0956046e-19 3.48037197e-07 -5.88518466e-20)
(-5.28800913e-19 5.94523726e-07 -1.00528798e-19)
(-7.76128476e-19 8.72580558e-07 -1.47538789e-19)
(-1.06812245e-18 1.20084276e-06 -2.03028525e-19)
(-1.42289659e-18 1.59966832e-06 -2.70433065e-19)
(-1.86096999e-18 2.09211595e-06 -3.53639264e-19)
(-2.40605028e-18 2.70482391e-06 -4.57131451e-19)
(-3.0855151e-18 3.46854931e-06 -5.86078163e-19)
(-3.93181252e-18 4.41974023e-06 -7.4659101e-19)
(-4.9795728e-18 5.59728785e-06 -9.45166716e-19)
(-6.27350367e-18 7.05139834e-06 -1.19016902e-18)
(-7.85856586e-18 8.83255155e-06 -1.4899487e-18)
(-9.7817219e-18 1.09934697e-05 -1.85314755e-18)
(-1.20996263e-17 1.35977607e-05 -2.29012119e-18)
(-1.48624344e-17 1.67017324e-05 -2.80983978e-18)
(-1.81160464e-17 2.03569202e-05 -3.42027562e-18)
(-2.18975739e-17 2.46049999e-05 -4.1275173e-18)
(-2.62265427e-17 2.94679092e-05 -4.93410877e-18)
(-3.10972917e-17 3.49393089e-05 -5.83765967e-18)
(-3.64693172e-17 4.0973733e-05 -6.82914984e-18)
(-4.22585416e-17 4.74767734e-05 -7.89150983e-18)
(-4.83306671e-17 5.42976067e-05 -8.99870749e-18)
(-5.44985953e-17 6.12260877e-05 -1.01156875e-17)
(-6.05263192e-17 6.79971177e-05 -1.11995302e-17)
(-6.61415906e-17 7.43048731e-05 -1.22021037e-17)
(-7.10582106e-17 7.98278473e-05 -1.30741707e-17)
(-7.50060979e-17 8.42626324e-05 -1.37704604e-17)
(-1.17726607e-19 1.3235832e-07 -2.23810355e-20)
(-3.55720355e-19 3.99929777e-07 -6.76246417e-20)
(-6.0830384e-19 6.83899492e-07 -1.15637199e-19)
(-8.94462977e-19 1.00560817e-06 -1.70023516e-19)
(-1.23409269e-18 1.38741696e-06 -2.34558431e-19)
(-1.64913643e-18 1.85398697e-06 -3.13401385e-19)
(-2.16467571e-18 2.43350237e-06 -4.11300423e-19)
(-2.8099608e-18 3.15882691e-06 -5.33783309e-19)
(-3.61935699e-18 4.06856501e-06 -6.87330018e-19)
(-4.6333147e-18 5.20814971e-06 -8.79546004e-19)
(-5.89868575e-18 6.63019577e-06 -1.11920599e-18)
(-7.47066067e-18 8.39667602e-06 -1.41659774e-18)
(-9.40656702e-18 1.05719535e-05 -1.78231561e-18)
(-1.17793262e-17 1.3237905e-05 -2.22975777e-18)
(-1.46591684e-17 1.6473381e-05 -2.77161944e-18)
(-1.81189022e-17 2.03601366e-05 -3.42080966e-18)
(-2.22256334e-17 2.49735356e-05 -4.18882029e-18)
(-2.70409058e-17 3.03827135e-05 -5.08567558e-18)
(-3.26029249e-17 3.66306114e-05 -6.11656e-18)
(-3.89198774e-17 4.37264683e-05 -7.28059503e-18)
(-4.5953674e-17 5.16275505e-05 -8.56797065e-18)
(-5.36066358e-17 6.02241843e-05 -9.95781708e-18)
(-6.17099346e-17 6.93267603e-05 -1.14166468e-17)
(-7.00168172e-17 7.86581143e-05 -1.28979169e-17)
(-7.82045188e-17 8.7855674e-05 -1.43433075e-17)
(-8.58896262e-17 9.64887201e-05 -1.56862961e-17)
(-9.26595957e-17 0.000104093797 -1.68580882e-17)
(-9.81188759e-17 0.000110226533 -1.77952158e-17)
(-1.34109244e-19 1.50775501e-07 -2.54944726e-20)
(-4.05379756e-19 4.55756067e-07 -7.70616888e-20)
(-6.9396308e-19 7.80195258e-07 -1.31913824e-19)
(-1.02228132e-18 1.14929567e-06 -1.94307141e-19)
(-1.4139724e-18 1.58962462e-06 -2.68725152e-19)
(-1.89533174e-18 2.13073283e-06 -3.60149759e-19)
(-2.49670423e-18 2.80671698e-06 -4.74321318e-19)
(-3.25385001e-18 3.65775213e-06 -6.17991177e-19)
(-4.20928252e-18 4.73159258e-06 -7.99164942e-19)
(-5.41355704e-18 6.08501702e-06 -1.02733041e-18)
(-6.92634813e-18 7.785037e-06 -1.31363674e-18)
(-8.81742526e-18 9.90999283e-06 -1.67104212e-18)
(-1.11660971e-17 1.25489311e-05 -2.1141547e-18)
(-1.40628484e-17 1.58034498e-05 -2.65946718e-18)
(-1.76108505e-17 1.97894039e-05 -3.32553056e-18)
(-2.19076726e-17 2.4616366e-05 -4.12940343e-18)
(-2.70451749e-17 3.03875232e-05 -5.08646895e-18)
(-3.31275495e-17 3.72199415e-05 -6.21366114e-18)
(-4.02178623e-17 4.51845165e-05 -7.51934649e-18)
(-4.83516614e-17 5.43212486e-05 -9.00583687e-18)
(-5.7501897e-17 6.4599823e-05 -1.0663086e-17)
(-6.75618831e-17 7.59004541e-05 -1.24660772e-17)
(-7.83260056e-17 8.79922024e-05 -1.43722847e-17)
(-8.9475368e-17 0.000100516844 -1.63205788e-17)
(-1.00573767e-16 0.000112984351 -1.82324171e-17)
(-1.11083885e-16 0.00012479109 -2.00165719e-17)
(-1.20410173e-16 0.000135268008 -2.15776422e-17)
(-1.27969214e-16 0.000143759674 -2.28274225e-17)
(-1.51460388e-19 1.70281352e-07 -2.8791683e-20)
(-4.58005261e-19 5.14916419e-07 -8.70614495e-20)
(-7.8487317e-19 8.82393081e-07 -1.49186254e-19)
(-1.15826809e-18 1.30216419e-06 -2.20139041e-19)
(-1.60597879e-18 1.80546131e-06 -3.05188712e-19)
(-2.15917347e-18 2.42730959e-06 -4.10237178e-19)
(-2.85416281e-18 3.20850675e-06 -5.4214807e-19)
(-3.73417986e-18 4.19762027e-06 -7.09074823e-19)
(-4.8511913e-18 5.45301923e-06 -9.20788721e-19)
(-6.2677126e-18 7.04491083e-06 -1.1889985e-18)
(-8.05853241e-18 9.05727592e-06 -1.527639e-18)
(-1.03122229e-17 1.15895666e-05 -1.95309924e-18)
(-1.31320922e-17 1.47577802e-05 -2.48431659e-18)
(-1.66369654e-17 1.86953458e-05 -3.1428005e-18)
(-2.09605604e-17 2.35524344e-05 -3.95234127e-18)
(-2.62321768e-17 2.94742789e-05 -4.93516545e-18)
(-3.26124211e-17 3.66413134e-05 -6.11831111e-18)
(-4.02304437e-17 4.51986701e-05 -7.52165959e-18)
(-4.91860386e-17 5.52585356e-05 -9.15798259e-18)
(-5.95733914e-17 6.69268026e-05 -1.10371601e-17)
(-7.13882635e-17 8.01987918e-05 -1.31492298e-17)
(-8.45258486e-17 9.49568229e-05 -1.54647803e-17)
(-9.87471981e-17 0.00011093249 -1.79304865e-17)
(-1.13652639e-16 0.0001276768 -2.04670698e-17)
(-1.28663177e-16 0.000144539295 -2.29698455e-17)
(-1.43032082e-16 0.000160681071 -2.5314902e-17)
(-1.55898886e-16 0.000175135459 -2.73712364e-17)
(-1.66394502e-16 0.000186926112 -2.90177024e-17)
(-1.69535627e-19 1.90601116e-07 -3.22261778e-20)
(-5.12858172e-19 5.76580418e-07 -9.74834087e-20)
(-8.79768208e-19 9.89069879e-07 -1.67213654e-19)
(-1.30055417e-18 1.46211251e-06 -2.47163524e-19)
(-1.80752156e-18 2.03201502e-06 -3.43455944e-19)
(-2.43719297e-18 2.73981772e-06 -4.6300275e-19)
(-3.23250793e-18 3.63376371e-06 -6.13913921e-19)
(-4.24509954e-18 4.77185348e-06 -8.05915869e-19)
(-5.53768559e-18 6.22452777e-06 -1.05078266e-18)
(-7.1865627e-18 8.07746664e-06 -1.362773e-18)
(-9.28412455e-18 1.04344174e-05 -1.75905069e-18)
(-1.1941241e-17 1.34198698e-05 -2.2600471e-18)
(-1.52891966e-17 1.71812412e-05 -2.88969435e-18)
(-1.9480785e-17 2.18901184e-05 -3.67543485e-18)
(-2.46894343e-17 2.774129e-05 -4.64777382e-18)
(-3.11043966e-17 3.49473572e-05 -5.83898702e-18)
(-3.89323018e-17 4.37404857e-05 -7.28290025e-18)
(-4.83548133e-17 5.4324837e-05 -9.00643378e-18)
(-5.95760418e-17 6.69298074e-05 -1.10376121e-17)
(-7.27199688e-17 8.16947769e-05 -1.33863915e-17)
(-8.78446414e-17 9.86850319e-05 -1.60469008e-17)
(-1.04870783e-16 0.00011781155 -1.89855448e-17)
(-1.23540334e-16 0.000138784427 -2.21360475e-17)
(-1.43377313e-16 0.00016106892 -2.5397187e-17)
(-1.63634582e-16 0.000183825659 -2.86309926e-17)
(-1.83289576e-16 0.000205905866 -3.16710772e-17)
(-2.01100748e-16 0.000225914773 -3.43398375e-17)
(-2.15755834e-16 0.000242378174 -3.64735203e-17)
(-1.880235e-19 2.11384671e-07 -3.57387443e-20)
(-5.68994796e-19 6.39687235e-07 -1.08148157e-19)
(-9.77020194e-19 1.09839559e-06 -1.85686508e-19)
(-1.4467085e-18 1.62640787e-06 -2.74918365e-19)
(-2.01517788e-18 2.2654382e-06 -3.82875958e-19)
(-2.72471008e-18 3.06299643e-06 -5.17556237e-19)
(-3.62544926e-18 4.07541725e-06 -6.8842174e-19)
(-4.77825789e-18 5.37106502e-06 -9.0692356e-19)
(-6.25780034e-18 7.033794e-06 -1.18705492e-18)
(-8.15587135e-18 9.16668483e-06 -1.54593113e-18)
(-1.05849126e-17 1.18959951e-05 -2.00437365e-18)
(-1.36815543e-17 1.53751428e-05 -2.58745055e-18)
(-1.76098601e-17 1.97883629e-05 -3.32488842e-18)
(-2.25637348e-17 2.53534286e-05 -4.25122096e-18)
(-2.87675835e-17 3.23224106e-05 -5.40546165e-18)
(-3.64741026e-17 4.097921e-05 -6.83004541e-18)
(-4.59587805e-17 5.16333824e-05 -8.56892387e-18)
(-5.75029473e-17 6.46010838e-05 -1.06632922e-17)
(-7.1383069e-17 8.01930146e-05 -1.31483021e-17)
(-8.78483372e-17 9.86892137e-05 -1.60474394e-17)
(-1.07017407e-16 0.00012022303 -1.93537338e-17)
(-1.28889188e-16 0.000144793244 -2.30315237e-17)
(-1.53214142e-16 0.00017211949 -2.69975659e-17)
(-1.79479908e-16 0.000201626136 -3.11256871e-17)
(-2.06765435e-16 0.000232278436 -3.52357623e-17)
(-2.33708236e-16 0.000262545749 -3.91072473e-17)
(-2.58530529e-16 0.000290430914 -4.25033208e-17)
(-2.792171e-16 0.000313670048 -4.52074349e-17)
(-2.06550312e-19 2.32211946e-07 -3.92583691e-20)
(-6.252806e-19 7.02961546e-07 -1.18840106e-19)
(-1.07466172e-18 1.20815868e-06 -2.0423099e-19)
(-1.59376757e-18 1.79171911e-06 -3.02840516e-19)
(-2.22472507e-18 2.5009845e-06 -4.22646559e-19)
(-3.01586331e-18 3.39025763e-06 -5.72784205e-19)
(-4.02496553e-18 4.52445229e-06 -7.64147855e-19)
(-5.32278017e-18 5.98303354e-06 -1.01003195e-18)
(-6.99690544e-18 7.86437738e-06 -1.32682509e-18)
(-9.15610816e-18 1.02906201e-05 -1.73475801e-18)