/*--------------------------------*- C++ -*----------------------------------*\
| =========                 |                                                 |
| \\      /  F ield         | foam-extend: Open Source CFD                    |
|  \\    /   O peration     | Version:     4.1                                |
|   \\  /    A nd           | Web:         http://www.foam-extend.org         |
|    \\/     M anipulation  |                                                 |
\*---------------------------------------------------------------------------*/
FoamFile
{
    version     2.0;
    format      ascii;
    class       surfaceScalarField;
    location    "0.2";
    object      meshPhi;
}
// * * * * * * * * * * * * * * * * * * * * * * * * * * * * * * * * * * * * * //

dimensions      [0 3 -1 0 0 0 0];

internalField   nonuniform List<scalar> 
102656
(
-5.78241225e-21
2.84407691e-13
0
1.15648258e-20
8.59067852e-13
-5.78241348e-21
2.0389937e-28
1.45621003e-12
1.15648296e-20
-2.31296571e-20
2.09974346e-12
0
2.31296612e-20
2.81577996e-12
-5.78241845e-21
-2.31296652e-20
3.63035376e-12
-5.78242001e-21
0
4.56966161e-12
-5.78242273e-21
0
5.66010495e-12
1.15648482e-20
4.62593669e-20
6.92810077e-12
-5.78242848e-21
-1.38778126e-19
8.39963188e-12
0
-9.25187799e-20
1.00995122e-11
1.15648689e-20
-4.62594083e-20
1.20503535e-11
-5.78243959e-21
0
1.42712366e-11
0
0
1.67761099e-11
-5.78245058e-21
1.85037914e-19
1.9571974e-11
0
0
2.26569426e-11
2.62023535e-27
9.25190759e-20
2.60183114e-11
5.78246904e-21
2.9139507e-26
2.96308071e-11
-3.42675044e-27
0
3.34552192e-11
0
-1.85038601e-19
3.7437636e-11
-4.3295964e-27
9.25193951e-20
4.15095004e-11
5.78250324e-21
-9.25194265e-20
4.55886711e-11
-5.78251752e-21
-9.25194958e-20
4.95816036e-11
0
0
5.33866737e-11
-5.78254181e-21
1.85039348e-19
5.68985414e-11
-5.78253063e-21
0
6.00133246e-11
-6.94043487e-27
0
6.26342409e-11
1.1565107e-20
6.46773013e-11
7.47981553e-27
-1.85039608e-19
0
5.7474764e-13
5.78241223e-21
0
1.73590083e-12
-5.78241362e-21
-1.15648273e-20
2.94234231e-12
-1.71868573e-28
-4.62593152e-20
4.24283761e-12
-1.15648329e-20
7.54715379e-28
5.69072412e-12
0
-4.62593303e-20
7.33920343e-12
-4.28921908e-28
0
9.24187542e-12
5.7824219e-21
4.62593492e-20
1.14528601e-11
0
9.25187268e-20
1.40264428e-11
5.78242808e-21
-9.2518752e-20
1.70161811e-11
-9.96488681e-28
-5.23451885e-27
2.04734237e-11
-1.19972453e-27
-1.85037653e-19
2.44452083e-11
5.78244039e-21
9.25188815e-20
2.89715396e-11
5.78244405e-21
-9.25189328e-20
3.40820937e-11
-2.00140643e-27
0
3.9792459e-11
-2.33846333e-27
1.85038082e-19
4.61000976e-11
-2.71115942e-27
0
5.29802973e-11
5.78247112e-21
0
6.03824657e-11
0
9.25193042e-20
6.82271916e-11
-1.15649808e-20
3.8025146e-26
7.64045365e-11
5.78249763e-21
-9.25193878e-20
8.47740195e-11
0
-1.85038974e-19
9.31666909e-11
0
-1.85039124e-19
1.01389556e-10
5.78252598e-21
-9.25196599e-20
1.09232407e-10
0
1.13527839e-25
1.16476863e-10
-6.89012757e-27
0
1.22907141e-10
5.78255045e-21
1.8503966e-19
1.28321824e-10
5.78255662e-21
1.32545714e-10
-5.78256929e-21
-1.85039728e-19
0
8.81819346e-13
0
0
2.66328333e-12
5.78241363e-21
3.46944826e-20
4.51462128e-12
-5.78241523e-21
2.3129658e-20
6.51193929e-12
0
8.00658221e-28
8.7386628e-12
-3.52488719e-28
2.31296658e-20
1.12781556e-11
-5.78242073e-21
-4.62593441e-20
1.4214656e-11
-5.75093282e-28
0
1.76335581e-11
-5.78242594e-21
-4.62593665e-20
2.1620937e-11
-8.78289821e-28
9.25187691e-20
2.62622186e-11
-5.78243307e-21
-4.62594004e-20
3.16399069e-11
-5.78243624e-21
-6.74111027e-27
3.78303066e-11
-5.78244269e-21
0
4.48992306e-11
-1.8420093e-27
-1.88241793e-26
5.28967499e-11
-2.17588172e-27
0
6.18511437e-11
-5.78246284e-21
1.8503817e-19
7.17623317e-11
0
0
8.25952099e-11
5.78247698e-21
0
9.42734505e-11
-5.78248642e-21
0
1.06674458e-10
1.15649974e-20
9.25193918e-20
1.19626249e-10
0
1.85039006e-19
1.32907043e-10
-1.11329981e-26
-1.85039185e-19
1.46248234e-10
-5.78253493e-21
9.25196515e-20
1.59341246e-10
-6.70201041e-27
-9.25197915e-20
1.71848387e-10
5.7825426e-21
-1.85039736e-19
1.83417434e-10
5.78255939e-21
1.85039869e-19
1.9369917e-10
0
1.39715263e-25
2.02366644e-10
5.78256652e-21
2.09134601e-10
0
1.85039915e-19
0
1.21871586e-12
-5.78241237e-21
-2.31296525e-20
3.68105287e-12
0
1.1564828e-20
6.24159896e-12
-1.99721912e-28
0
9.00816598e-12
1.15648345e-20
-6.93889905e-20
1.20992464e-11
5.782419e-21
0
1.5633638e-11
5.7824212e-21
0
1.97319616e-11
-1.15648482e-20
0
2.45172344e-11
-7.96085002e-28
4.62593797e-20
3.01143541e-11
-5.78243132e-21
-4.62593934e-20
3.66483373e-11
5.78243452e-21
-4.62594081e-20
4.42411766e-11
0
4.62594543e-20
5.30071998e-11
0
9.2518934e-20
6.30468898e-11
5.78245165e-21
0
7.44392135e-11
-2.49134782e-27
0
8.7232659e-11
5.78246762e-21
-9.25191789e-20
1.0143536e-10
5.7824771e-21
9.25192369e-20
1.17004905e-10
-5.78249154e-21
-9.25192925e-20
1.33838654e-10
-4.57564586e-27
4.43526709e-26
1.51765602e-10
1.15650275e-20
-9.25194875e-20
1.70540967e-10
-5.7825299e-21
1.10994915e-25
1.89844759e-10
-1.15650812e-20
9.2519814e-20
2.0928543e-10
1.73476596e-20
-9.25199247e-20
2.28409451e-10
-5.78257208e-21
-3.70080047e-19
2.46717136e-10
5.78257691e-21
0
2.63684354e-10
1.15651869e-20
-1.85040418e-19
2.78789004e-10
-1.15652186e-20
0
2.91540376e-10
-1.03127844e-26
3.01508887e-10
0
1.85040483e-19
0
1.59842055e-12
0
-1.77625806e-28
4.82871488e-12
0
1.15648287e-20
8.19130764e-12
0
2.31296616e-20
1.18320635e-11
-5.78241815e-21
2.31296665e-20
1.59117656e-11
0
0
2.05923547e-11
5.78242253e-21
0
2.60392965e-11
5.78242624e-21
0
3.24226555e-11
0
5.01069569e-27
3.99166638e-11
-1.13361979e-27
0
4.86975588e-11
-5.78243819e-21
9.25188852e-20
5.89394674e-11
0
0
7.08081458e-11
0
9.25189976e-20
8.44524547e-11
-2.47551574e-27
9.25191015e-20
9.99935857e-11
5.782468e-21
-9.25191948e-20
1.1751225e-10
5.78248194e-21
0
1.37034311e-10
-5.7824943e-21
1.85038788e-19
1.58515654e-10
0
9.25195402e-20
1.81827462e-10
-5.78251754e-21
-9.25196203e-20
2.06743391e-10
5.78253298e-21
-9.25197546e-20
2.32930418e-10
-7.21522971e-27
1.85039923e-19
2.59945288e-10
5.78256637e-21
0
2.87238361e-10
-9.01511864e-27
8.29161367e-26
3.14166267e-10
-9.9176241e-27
-9.25202985e-20
3.40014062e-10
5.7826176e-21
0
3.64026521e-10
5.78262156e-21
0
3.85447004e-10
0
0
4.03561066e-10
5.78265895e-21
4.17740994e-10
-5.78268169e-21
0
-5.7824126e-21
2.0339698e-12
0
-3.46944814e-20
6.14596421e-12
5.78241465e-21
-3.14384804e-28
1.04322363e-11
-2.59159451e-28
-2.3129664e-20
1.50851975e-11
0
2.31296697e-20
2.0317604e-11
5.78242081e-21
-4.62593514e-20
2.63449549e-11
0
-9.25187343e-20
3.33890958e-11
-5.78242781e-21
4.62593884e-20
4.16801026e-11
5.78243309e-21
5.91301682e-27
5.14561452e-11
-1.33452062e-27
-4.62594244e-20
6.29609962e-11
-5.78244307e-21
4.62594716e-20
7.64388515e-11
0
0
9.21261372e-11
0
0
1.10240054e-10
-5.78247149e-21
0
1.30963782e-10
-5.78248354e-21
9.25192934e-20
1.54428522e-10
0
-1.85038927e-19
1.80692951e-10
5.78251302e-21
-5.10510325e-26
2.09721106e-10
0
-9.2519773e-20
2.41360285e-10
-6.88486571e-27
9.25199474e-20
2.7532109e-10
-1.15651339e-20
0
3.11162229e-10
1.15651777e-20
-8.6487111e-26
3.48283013e-10
-5.78260665e-21
1.85041034e-19
3.85926403e-10
0
-9.25206022e-20
4.23195013e-10
-5.78265235e-21
-1.85041666e-19
4.59081418e-10
1.1565349e-20
-1.85042116e-19
4.92512557e-10
-5.78269532e-21
0
5.22406116e-10
-1.58390791e-26
0
5.47734752e-10
-5.78274664e-21
5.6759233e-10
5.7827425e-21
1.85042833e-19
1.15648255e-20
2.53852219e-12
0
-1.15648279e-20
7.67292473e-12
-5.78241514e-21
-2.31296603e-20
1.30338247e-11
-3.00869089e-28
-2.31296669e-20
1.88710293e-11
5.78241995e-21
-4.62593446e-20
2.54616889e-11
1.15648465e-20
-4.62593599e-20
3.30883505e-11
0
9.25187567e-20
4.20443278e-11
5.7824307e-21
-5.65055568e-27
5.26368541e-11
0
4.62594344e-20
6.51875744e-11
0
8.73832583e-27
8.00298846e-11
0
4.62594979e-20
9.75026398e-11
-2.43598985e-27
-4.62595565e-20
1.17939699e-10
-5.78247155e-21
0
1.41654836e-10
-3.63306398e-27
0
1.68921747e-10
5.78249538e-21
9.25195067e-20
1.99949231e-10
-5.78251208e-21
9.25196231e-20
2.34852154e-10
-6.26341608e-27
9.2519805e-20
2.73619456e-10
-5.78256006e-21
9.252008e-20
3.16081304e-10
5.78257657e-21
0
3.61878345e-10
5.78260271e-21
-9.2520455e-20
4.10436878e-10
5.7826308e-21
9.25208072e-20
4.60954352e-10
-5.78267342e-21
-2.46907897e-25
5.12399747e-10
5.7827055e-21
-9.25210503e-20
5.63532828e-10
-5.78272149e-21
-9.25217176e-20
6.12944845e-10
-5.78275137e-21
-1.85043274e-19
6.59120936e-10
1.15655783e-20
-3.39547178e-25
7.00521496e-10
5.78280493e-21
-1.85044324e-19
7.3567651e-10
-2.1735132e-26
7.63283962e-10
0
-1.85044202e-19
-6.78607394e-29
3.12530793e-12
5.78241288e-21
0
9.45004359e-12
5.78241551e-21
-4.26101632e-28
1.60663892e-11
5.78241829e-21
2.31296692e-20
2.32949592e-11
-5.11619671e-28
1.59566406e-27
3.14927787e-11
0
0
4.10264647e-11
0
4.62593995e-20
5.22800251e-11
-1.18374028e-27
0
6.56599761e-11
5.78244034e-21
9.25189249e-20
8.15969955e-11
-5.78244971e-21
1.0528807e-26
1.00543366e-10
5.78245687e-21
4.62595675e-20
1.22965632e-10
5.7824678e-21
-9.25192128e-20
1.49331609e-10
0
0
1.80090871e-10
0
9.25194897e-20
2.1564814e-10
1.73475496e-20
0
2.56329401e-10
0
-9.25199501e-20
3.02341292e-10
0
-1.85040317e-19
3.53725265e-10
5.78258846e-21
9.25204753e-20
4.1030918e-10
5.78263055e-21
9.25207773e-20
4.71660391e-10
5.782654e-21
1.25191267e-25
5.37045766e-10
-5.78269117e-21
0
6.05405266e-10
0
-9.25216295e-20
6.75346217e-10
-5.78277143e-21
-9.25219591e-20
7.45164874e-10
-5.7828127e-21
0
8.12900034e-10
5.78285317e-21
0
8.7642003e-10
-2.5130256e-26
-1.8504611e-19
9.335398e-10
-2.69481547e-26
-1.85046096e-19
9.8215938e-10
0
1.02041037e-09
1.15659887e-20
-1.85046902e-19
0
3.8074129e-12
0
-1.15648296e-20
1.15175518e-11
5.78241616e-21
0
1.96004045e-11
-4.08702613e-28
2.3129673e-20
2.84634286e-11
0
2.31296821e-20
3.85624081e-11
0
4.62593911e-20
5.03691611e-11
-5.78243222e-21
0
6.43823901e-11
5.78243691e-21
4.62594458e-20
8.11359246e-11
0
1.01205016e-26
1.01202389e-10
-1.1564912e-20
-4.62595221e-20
1.25191111e-10
-1.15649348e-20
4.62596099e-20
1.5374002e-10
0
1.38779035e-19
1.87500011e-10
-5.78250027e-21
0
2.27110235e-10
5.7825154e-21
0
2.73163217e-10
0
-9.2519936e-20
3.26159175e-10
5.78256577e-21
0
3.8644984e-10
0
-9.25206144e-20
4.54173394e-10
-1.16166485e-26
9.25209763e-20
5.29183813e-10
-1.37476411e-26
0
6.10979959e-10
0
1.60206362e-25
6.98642106e-10
5.78276845e-21
9.25220764e-20
7.90785699e-10
-5.78282098e-21
1.85045249e-19
8.85543427e-10
-5.7829001e-21
9.25231974e-20
9.80586465e-10
5.78293151e-21
2.52148616e-25
1.07319338e-09
-3.01024652e-26
1.85047608e-19
1.16037034e-09
-5.78307155e-21
-1.85048907e-19
1.23901906e-09
-1.15662432e-20
0
1.30614029e-09
-5.78316461e-21
1.35905229e-09
-3.9163339e-26
1.8504936e-19
-1.73472402e-20
4.59727633e-12
5.78241333e-21
-2.31296609e-20
1.39143199e-11
5.78241688e-21
4.62593386e-20
2.37050933e-11
1.15648413e-20
0
3.44820082e-11
5.78242488e-21
4.62593808e-20
4.68222854e-11
5.78243079e-21
2.87772383e-27
6.13290987e-11
-1.15648728e-20
0
7.86451048e-11
0
4.62594649e-20
9.94663487e-11
-1.15649084e-20
1.20814518e-26
1.24549359e-10
5.78246313e-21
-4.62595682e-20
1.54709567e-10
1.15649535e-20
4.62596949e-20
1.90813264e-10
0
-4.62597694e-20
2.3375966e-10
5.78251372e-21
0
2.84450286e-10
0
0
3.43744099e-10
-8.16255421e-27
0
4.12396716e-10
-5.78261198e-21
-9.25207116e-20
4.9098361e-10
5.78264241e-21
-1.26661358e-25
5.79808754e-10
-5.78270355e-21
1.50188915e-25
6.78802547e-10
5.78274199e-21
1.85044256e-19
7.87415743e-10
0
9.25226985e-20
9.0451998e-10
0
-9.25230708e-20
1.02832926e-09
-2.74714934e-26
-1.8504734e-19
1.15635941e-09
0
2.77573418e-19
1.28544308e-09
1.1566205e-20
-9.25248632e-20
1.41181532e-09
0
-7.1520848e-25
1.53127782e-09
-5.7832737e-21
0
1.63943906e-09
-4.63078644e-26
-1.85053439e-19
1.7320134e-09
5.78335222e-21
1.80514814e-09
-5.1590196e-26
1.85053242e-19
-5.7824137e-21
5.50489957e-12
-5.7824137e-21
1.15648314e-20
1.66750444e-11
-5.78241769e-21
-6.68048114e-28
2.84464708e-11
-5.4833194e-28
-2.31296843e-20
4.14525315e-11
5.78242698e-21
2.5513373e-27
5.64198293e-11
-5.78243389e-21
0
7.41162874e-11
-5.7824413e-21
-9.25189278e-20
9.53625288e-11
-1.15648989e-20
-4.62595185e-20
1.21059393e-10
5.78245926e-21
-9.25191331e-20
1.52200817e-10
-5.78247584e-21
9.25193162e-20
1.89870366e-10
5.78248922e-21
2.29129048e-26
2.3523585e-10
0
4.62598691e-20
2.89530327e-10
-5.78254118e-21
0
3.5401503e-10
1.15651384e-20
0
4.29922903e-10
0
9.25206475e-20
5.18378954e-10
0
0
6.20296613e-10
5.78269715e-21
-1.5819291e-25
7.36251018e-10
0
1.88808768e-25
8.66333343e-10
-1.73485206e-20
-9.25230679e-20
1.00999389e-09
-5.78292889e-21
1.85047645e-19
1.16588817e-09
0
-1.85048963e-19
1.33174676e-09
-3.50896971e-26
0
1.50429464e-09
-5.78326054e-21
1.15718083e-24
1.67924832e-09
0
-4.27698623e-25
1.85141649e-09
5.78338255e-21
-1.85055952e-19
2.01492106e-09
1.15669597e-20
0
2.16353886e-09
1.15671384e-20
3.70116052e-19
2.29114156e-09
1.15672932e-20
2.39218677e-09
5.78370824e-21
-1.85059449e-19
0
6.54700389e-12
0
-2.31296661e-20
1.98399694e-11
-1.15648375e-20
-1.15648386e-20
3.38784922e-11
0
0
4.94550233e-11
5.78242926e-21
6.93891167e-20
6.74854956e-11
-1.15648746e-20
3.90505579e-27
8.89303304e-11
5.78244601e-21
0
1.14819845e-10
1.15649091e-20
9.25191016e-20
1.46315596e-10
5.78246735e-21
4.62596325e-20
1.84719506e-10
-5.78248339e-21
-4.62597045e-20
2.31459341e-10
1.15650068e-20
0
2.88096503e-10
-5.78253442e-21
-9.25199007e-20
3.563088e-10
5.78255904e-21
0
4.37845384e-10
5.7825967e-21
1.85041372e-19
5.34458462e-10
-5.78264243e-21
0
6.47800341e-10
-1.15654098e-20
-1.85043678e-19
7.79285657e-10
0
0
9.29917926e-10
0
9.25235661e-20
1.1000849e-09
5.78292784e-21
9.25242287e-20
1.28932923e-09
5.78302853e-21
-1.85049785e-19
1.49611335e-09
-3.81899581e-26
-9.25262981e-20
1.71760796e-09
0
-1.85053983e-19
1.94954278e-09
-5.14921603e-26
-1.85056686e-19
2.18616405e-09
-5.78358987e-21
0
2.42034227e-09
5.78366823e-21
-3.70122078e-19
2.6438632e-09
-7.27360459e-26
-1.85062284e-19
2.84791064e-09
-7.91463858e-26
0
3.0237134e-09
0
3.16328569e-09
-8.91762262e-26
-1.85066465e-19
5.7824142e-21
7.7307961e-12
-5.78241434e-21
1.15648338e-20
2.34316898e-11
-1.73472594e-20
-8.7003939e-28
4.00479973e-11
5.78242521e-21
0
5.85711444e-11
1.15648634e-20
2.31297141e-20
8.01334484e-11
-1.46271338e-27
-4.4856666e-27
1.05920529e-10
5.78245107e-21
4.62595174e-20
1.37240064e-10
-1.15649248e-20
0
1.75591822e-10
-5.78247962e-21
1.97711816e-26
2.2264226e-10
-5.78249971e-21
2.5364457e-26
2.80244823e-10
-5.78252495e-21
-4.62599428e-20
3.5048234e-10
5.78255656e-21
1.38780351e-19
4.35620666e-10
0
9.2520663e-20
5.38062361e-10
0
-9.25210566e-20
6.60272765e-10
-5.78270398e-21
-9.25218171e-20
8.04647053e-10
-1.81390449e-26
0
9.73330636e-10
-5.78288502e-21
-9.25236967e-20
1.16798455e-09
-5.78296491e-21
-9.25241862e-20
1.38950466e-09
5.78305081e-21
1.85050942e-19
1.63769058e-09
0
-9.25261175e-20
1.91089095e-09
5.78327976e-21
9.25283723e-20
2.20566612e-09
-5.78354604e-21
9.2529323e-20
2.51652466e-09
0
-1.85062893e-19
2.83580254e-09
5.78384652e-21
0
3.15375739e-09
-5.78411639e-21
3.70137935e-19
3.45893881e-09
0
0
3.73886356e-09
-1.03037129e-25
1.85072071e-19
3.98096563e-09
-1.10704528e-25
4.17371728e-09
5.78464345e-21
0
0
9.05569157e-12
5.78241467e-21
-2.31296709e-20
2.74600193e-11
-5.78242095e-21
-1.15648419e-20
4.69885481e-11
0
-2.31297053e-20
6.88535028e-11
-1.18913656e-27
-4.62594385e-20
9.44349939e-11
-5.78244482e-21
2.31297489e-20
1.25207999e-10
-2.2305618e-27
9.25191132e-20
1.62830612e-10
-1.15649421e-20
-9.25192755e-20
2.09187401e-10
1.15649754e-20
0
2.66401437e-10
5.78250821e-21
9.25197729e-20
3.36905737e-10
-1.156508e-20
0
4.23421339e-10
0
-4.84119483e-26
5.28948459e-10
-1.07931942e-26
0
6.56776812e-10
5.78268748e-21
0
8.10342101e-10
-1.73552533e-26
9.25222867e-20
9.93071615e-10
-1.15656772e-20
0
1.20815963e-09
-2.71575576e-26
9.2524246e-20
1.45824937e-09
5.78305269e-21
3.6152886e-25
1.74506518e-09
5.78319692e-21
-9.25264846e-20
2.06893885e-09
5.78336411e-21
-9.25285347e-20
2.42828092e-09
-1.15671686e-20
1.85061242e-19
2.81905268e-09
5.78376644e-21
-9.25322246e-20
3.23431696e-09
1.15680771e-20
9.2535033e-20
3.6639736e-09
-5.78433664e-21
9.25352904e-20
4.09479494e-09
-5.78459899e-21
-1.85078315e-19
4.51087269e-09
0
0
4.89454661e-09
5.78496426e-21
-1.85085094e-19
5.22779561e-09
5.78516557e-21
5.49394241e-09
0
0
5.78241483e-21
1.05264387e-11
0
-6.95085835e-28
3.19359392e-11
5.78242147e-21
-1.09100025e-27
5.47106118e-11
-5.78242953e-21
4.62594119e-20
8.03168865e-11
-1.32572009e-27
2.31297324e-20
1.10434847e-10
-5.78244877e-21
5.74908186e-27
1.4688931e-10
-2.50740524e-27
0
1.91737138e-10
0
-4.62596953e-20
2.4732314e-10
-5.78250021e-21
4.62598189e-20
3.16361408e-10
1.15650496e-20
3.40204421e-26
4.01980013e-10
-5.78256281e-21
-4.62601322e-20
5.07714148e-10
-5.78260748e-21
4.62604289e-20
6.37578038e-10
0
0
7.95959639e-10
0
0
9.87532787e-10
5.78280292e-21
0
1.21719081e-09
-5.78290658e-21
9.25238249e-20
1.4896157e-09
-1.73491323e-20
9.25254474e-20
1.80887246e-09
-5.78322657e-21
-9.25270231e-20
2.17798889e-09
5.78336782e-21
0
2.59826977e-09
1.15672228e-20
9.25315898e-20
3.06851983e-09
-5.7838998e-21
9.25332703e-20
3.58423396e-09
-8.84918626e-26
-1.85072495e-19
4.13685279e-09
5.78440512e-21
-1.85076912e-19
4.71324775e-09
5.78472922e-21
-9.25423338e-20
5.29560976e-09
-1.38872111e-25
0
5.86193756e-09
-1.56248263e-25
3.70187522e-19
6.38728232e-09
5.78570867e-21
0
6.84577159e-09
-5.78617239e-21
7.21321267e-09
5.78620899e-21
0
0
1.21399e-11
0
-1.15648385e-20
3.68499297e-11
5.78242244e-21
0
6.32021097e-11
-5.78243132e-21
-4.62594277e-20
9.29564575e-11
5.78243949e-21
4.74469154e-27
1.28140181e-10
5.78245068e-21
-4.62595434e-20
1.70975993e-10
5.78246477e-21
0
2.23988157e-10
-5.78248653e-21
0
2.90098474e-10
0
4.62598878e-20
3.72722562e-10
-6.51806785e-27
0
4.75818925e-10
5.78257465e-21
-4.62602545e-20
6.0398549e-10
5.78262419e-21
9.25211402e-20
7.62474102e-10
5.78268742e-21
1.85043747e-19
9.57094382e-10
-5.7827861e-21
9.25226866e-20
1.19426577e-09
5.78286818e-21
-1.85047872e-19
1.48078616e-09
0
-9.25255084e-20
1.82330508e-09
-3.85905859e-26
-9.25272482e-20
2.2279486e-09
0
0
2.69975204e-09
-5.78362441e-21
6.56085666e-25
3.24167545e-09
5.78383276e-21
9.25345927e-20
3.8534922e-09
0
-1.85073638e-19
4.53058033e-09
5.78450188e-21
-9.25412687e-20
5.26271403e-09
-5.78502857e-21
-9.25436758e-20
6.03313668e-09
5.78532691e-21
0
6.81814019e-09
-5.78577446e-21
-1.851017e-19
7.58748935e-09
-5.78642241e-21
-1.85111977e-19
8.30601784e-09
-2.2189837e-25
1.85117874e-19
8.93653823e-09
0
9.44383148e-09
-5.78733832e-21
1.85118139e-19
-5.78241544e-21
1.38868968e-11
-5.78241565e-21
0
4.21745634e-11
5.78242334e-21
1.15648494e-20
7.24181442e-11
-5.78243193e-21
-2.31297218e-20
1.06710005e-10
-1.59057346e-27
0
1.47472049e-10
-1.15649108e-20
2.31297805e-20
1.97382508e-10
-5.78247295e-21
0
2.59512001e-10
0
0
3.37454324e-10
-1.15650378e-20
4.62599566e-20
4.35452581e-10
0
-4.62601228e-20
5.58511225e-10
-5.78260377e-21
4.62604368e-20
7.12504883e-10
-5.7826638e-21
0
9.0418456e-10
-5.78274095e-21
0
1.1412392e-09
0
-9.25233262e-20
1.43238702e-09
5.78293752e-21
0
1.78694457e-09
5.78308782e-21
0
2.21412538e-09
-5.78332003e-21
-5.10921842e-25
2.72288057e-09
-5.72380076e-26
-9.25307934e-20
3.3213049e-09
-5.78385637e-21
7.91805534e-25
4.01502683e-09
5.78420921e-21
9.2539055e-20
4.80571603e-09
-5.78462498e-21
-9.25410075e-20
5.68935283e-09
5.78497105e-21
9.25467416e-20
6.65426969e-09
0
-9.25483698e-20
7.6796048e-09
-5.78623859e-21
9.25567702e-20
8.73428469e-09
0
1.8511936e-19
9.77713329e-09
-5.78724782e-21
0
1.07587586e-08
0
-1.85141244e-19
1.16256458e-08
0
1.23262764e-08
3.33349658e-25
1.85147488e-19
-2.15637541e-28
1.57514955e-11
-2.15637541e-28
-1.15648418e-20
4.78617771e-11
0
-1.15648498e-20
8.22774531e-11
1.15648667e-20
0
1.21460622e-10
5.78244415e-21
0
1.68274821e-10
0
-2.3129784e-20
2.25913016e-10
0
9.25193873e-20
2.98071316e-10
-5.78250119e-21
4.62597874e-20
3.89121306e-10
0
3.63410818e-26
5.04281672e-10
5.78256359e-21
-4.62601632e-20
6.49784484e-10
0
-4.62605669e-20
8.33028311e-10
0
-4.6261049e-20
1.06269005e-09
5.78276166e-21
1.85045699e-19
1.34880304e-09
-2.40043916e-26
2.82858509e-25
1.70284109e-09
0
-1.85051858e-19
2.13726085e-09
-4.05134581e-26
0
2.66497124e-09
-5.21395266e-26
9.25299972e-20
3.29917992e-09
5.78368453e-21
2.7759974e-19
4.05194883e-09
0
-9.2536606e-20
4.93268023e-09
0
1.1676712e-24
5.94667632e-09
5.7849317e-21
0
7.09187595e-09
-1.62199319e-25
-9.25514544e-20
8.35584834e-09
0
1.85117229e-19
9.71352736e-09
-5.78737432e-21
-3.70261024e-19
1.11250835e-08
0
-1.85141141e-19
1.25351816e-08
-1.15776443e-20
1.85159523e-19
1.38748454e-08
0
0
1.50669812e-08
5.79001228e-21
1.60357156e-08
0
-1.85179464e-19
-5.78241614e-21
1.77104804e-11
-1.1564832e-20
0
5.38411507e-11
6.91503967e-28
2.94281636e-27
9.26594098e-11
-5.78243571e-21
0
1.37031278e-10
0
4.6259531e-20
1.90305724e-10
-2.54783496e-27
-8.10109145e-27
2.56247185e-10
5.78247857e-21
0
3.39254237e-10
-4.76273204e-27
4.62598543e-20
4.44582312e-10
-6.41396727e-27
3.93213265e-26
5.78573114e-10
-1.15651599e-20
5.23678964e-26
7.48888056e-10
-5.78264192e-21
0
9.64736586e-10
0
0
1.23708041e-09
-1.73484306e-20
9.25234463e-20
1.57879175e-09
1.15658391e-20
0
2.00472393e-09
0
9.25264638e-20
2.53136505e-09
-5.78328209e-21
-5.34329629e-25
3.17666548e-09
5.78354183e-21
0
3.95928439e-09
5.78394598e-21
-9.25344465e-20
4.89689056e-09
0
1.10781566e-24
6.00498528e-09
-5.78490406e-21
1.85092877e-19
7.29432488e-09
-1.15710881e-20
9.25530165e-20
8.7666578e-09
-1.9368556e-25
2.08889859e-24
1.04105882e-08
-2.37627027e-25
-2.50758821e-24
1.21976157e-08
1.15760835e-20
9.25780171e-20
1.40783734e-08
5.78927592e-21
0
1.59799892e-08
5.79001995e-21
0
1.78070409e-08
5.79155116e-21
-1.85207937e-19
1.94484234e-08
-5.06706052e-25
2.07913193e-08
5.79291503e-21
-1.85211011e-19
5.78241605e-21
1.97331696e-11
0
-1.15648415e-20
6.00192704e-11
-5.78242594e-21
1.15648523e-20
1.03402667e-10
-5.78243531e-21
-2.31297352e-20
1.53181983e-10
0
6.18054297e-27
2.13229254e-10
0
-9.25192497e-20
2.87930675e-10
-3.6641396e-27
4.62597322e-20
3.82457369e-10
-5.78251199e-21
4.6259886e-20
5.03047767e-10
5.7825407e-21
4.62601321e-20
6.57307304e-10
-9.10546991e-27
-4.62603055e-20
8.54525254e-10
1.1565302e-20
-4.62607947e-20
1.10600072e-09
-1.63369474e-26
0
1.4253585e-09
-2.17740283e-26
0
1.82882022e-09
-5.78296384e-21
-1.85050815e-19
2.33536807e-09
-5.78318016e-21
-4.57423407e-25
2.96668909e-09
5.78337314e-21
9.25300023e-20
3.74692122e-09
0
-9.25334034e-20
4.70162694e-09
5.78413712e-21
-9.25366837e-20
5.85659896e-09
-5.78464234e-21
1.85087282e-19
7.23631112e-09
0
-9.25478711e-20
8.85973405e-09
-1.81036801e-25
1.85118551e-19
1.07352976e-08
5.78675967e-21
0
1.28556231e-08
0
3.03971791e-24
1.51912702e-08
1.1578047e-20
-2.77771144e-19
1.76842786e-08
5.79037576e-21
0
2.02417366e-08
0
0
2.27337362e-08
1.15871556e-20
0
2.50004411e-08
5.79467404e-21
2.68718686e-08
0
1.85260271e-19
5.78241611e-21
2.17816835e-11
-2.36907029e-28
-1.15648427e-20
6.62804858e-11
-7.24098494e-28
-1.54757151e-27
1.14306225e-10
-5.78243692e-21
-2.31297369e-20
1.69610771e-10
0
6.31448838e-27
2.3661739e-10
-5.40959307e-27
2.3129821e-20
3.20373563e-10
1.73474534e-20
9.25195147e-20
4.26880422e-10
-5.78251482e-21
-3.21646639e-26
5.63443763e-10
-1.15650969e-20
4.34685313e-26
7.39056496e-10
0
5.85711976e-26
9.64816314e-10
-1.15653231e-20
-4.62607958e-20
1.25437376e-09
-5.78275645e-21
-4.62613065e-20
1.62439309e-09
-2.30179983e-26
-9.25239643e-20
2.09498948e-09
5.7829995e-21
-3.74718788e-25
2.69007829e-09
0
-9.25280687e-20
3.43753658e-09
-5.78345161e-21
9.25310887e-20
4.36905224e-09
5.78378575e-21
-1.85071683e-19
5.51940717e-09
0
1.11855414e-24
6.92508806e-09
0
-9.25461974e-20
8.62216147e-09
5.78547252e-21
-9.25521194e-20
1.06424484e-08
0
4.62822024e-19
1.30066551e-08
1.15751192e-20
9.25806486e-20
1.57153842e-08
5.78872779e-21
-3.63005196e-24
1.87428363e-08
5.78984501e-21
-4.40713796e-24
2.20278329e-08
5.79200496e-21
0
2.5458311e-08
1.15884696e-20
0
2.88623317e-08
2.98722131e-21
1.85299912e-19
3.20117154e-08
-5.60483871e-21
3.46459647e-08
-1.13908419e-20
-1.50124399e-23
-2.34773749e-28
2.38117513e-11
5.7824163e-21
-2.31296842e-20
7.24893234e-11
5.78242601e-21
2.31297066e-20
1.25133459e-10
-1.15648735e-20
0
1.85959332e-10
0
-2.31297605e-20
2.5995679e-10
0
-2.31298041e-20
3.52858874e-10
5.78247956e-21
-4.62597725e-20
4.71535323e-10
-5.78251536e-21
-3.25363313e-26
6.24420003e-10
5.78254625e-21
4.62601808e-20
8.21987541e-10
-5.78261392e-21
5.98674984e-26
1.07728863e-09
0
-4.62608381e-20
1.40654481e-09
-5.78274769e-21
4.62614858e-20
1.82979035e-09
-5.78288902e-21
9.25241907e-20
2.37152846e-09
-3.19812439e-26
-1.85052595e-19
3.0613393e-09
-5.78327457e-21
0
3.9343355e-09
5.78350892e-21
9.25326477e-20
5.03130775e-09
5.78387437e-21
-9.25372103e-20
6.39832419e-09
0
1.22052751e-24
8.0855037e-09
0
1.59648965e-24
1.01445676e-08
-1.76063573e-25
-9.25581632e-20
1.26252086e-08
-5.78702013e-21
0
1.55666651e-08
-5.78836181e-21
0
1.89873012e-08
5.78963809e-21
4.25873336e-24
2.28762651e-08
0
0
2.71779635e-08
5.79378642e-21
0
3.17690694e-08
-8.59655189e-21
-1.85342976e-19
3.64360239e-08
-2.01907784e-20
1.85371979e-19
4.08603785e-08
-1.74074007e-20
4.4635458e-08
-2.3220788e-20
-1.85408391e-19
0
2.57740917e-11
0
0
7.84946913e-11
-5.78242554e-21
0
1.35619374e-10
-5.78243595e-21
2.31297296e-20
2.01823798e-10
-1.83469745e-27
-2.31297637e-20
2.8266381e-10
5.78246173e-21
-2.3129809e-20
3.84562739e-10
5.7824816e-21
4.625974e-20
5.15272463e-10
5.78250817e-21
-3.20522437e-26
6.8438283e-10
-5.78255094e-21
4.37332903e-26
9.0390139e-10
-9.47319176e-27
-9.25208599e-20
1.18892024e-09
0
4.62608383e-20
1.55837911e-09
-1.75593682e-26
1.0978111e-25
2.03592121e-09
-5.78286689e-21
9.25242623e-20
2.65081814e-09
1.15660893e-20
9.25266537e-20
3.43890905e-09
-1.15665348e-20
9.25289112e-20
4.44345312e-09
-5.88785522e-26
9.25324473e-20
5.71573081e-09
-7.91523166e-26
-9.25371235e-20
7.31514376e-09
-5.78454262e-21
9.25445578e-20
9.30846606e-09
5.78511273e-21
9.25529787e-20
1.17677824e-08
-5.78599672e-21
2.25104355e-24
1.47665726e-08
-1.15747775e-20
-2.77727097e-19
1.83716719e-08
-1.15775381e-20
-1.85186461e-19
2.26341823e-08
-4.2175536e-25
-4.88983451e-24
2.75772981e-08
-2.80872709e-21
-9.26370096e-20
3.31717253e-08
2.04318835e-22
-1.85348515e-19
3.93061981e-08
-8.58175933e-21
-1.85418367e-19
4.57471468e-08
-1.74105453e-20
1.85467657e-19
5.20763916e-08
-1.74234975e-20
5.76510474e-08
-1.74357337e-20
1.85526589e-19
0
2.76163556e-11
-5.78241608e-21
-1.15648408e-20
8.41358322e-11
-5.78242469e-21
2.31297013e-20
1.45481037e-10
-5.7824345e-21
-4.10969549e-27
2.16770628e-10
1.15648909e-20
0
3.04107438e-10
-2.47991763e-27
-2.31298087e-20
4.14586666e-10
0
-4.62597405e-20
5.56825366e-10
-1.15650163e-20
-9.25198157e-20
7.41556229e-10
-5.78254446e-21
-9.25202291e-20
9.82315157e-10
0
5.73607317e-26
1.29624832e-09
-1.24123019e-26
-9.25216564e-20
1.70505838e-09
-1.69631979e-26
-4.62613336e-20
2.23609911e-09
-5.78287689e-21
-9.25244354e-20
2.92360913e-09
-5.78301413e-21
-9.25261428e-20
3.8100463e-09
1.15665056e-20
0
4.94743878e-09
0
9.25324644e-20
6.39860412e-09
-7.89730906e-26
9.25373195e-20
8.23800011e-09
-5.78455663e-21
9.25451112e-20
1.05518619e-08
-5.78515784e-21
0
1.343715e-08
-5.7862917e-21
-1.85132078e-19
1.69986918e-08
0
0
2.13436926e-08
-5.78931944e-21
9.25978679e-20
2.65737017e-08
-5.79111261e-21
9.26283733e-20
3.27729905e-08
-5.79400589e-21
-9.26550876e-20
3.99865995e-08
-1.15953207e-20
1.85409683e-19
4.81772785e-08
-1.74075532e-20
1.8548968e-19
5.71580139e-08
-5.80827414e-21
0
6.64558361e-08
-2.3260841e-20
7.50707891e-08
-1.74676941e-20
0
0
2.92855483e-11
5.78241527e-21
1.15648392e-20
8.92497728e-11
5.78242288e-21
-1.15648475e-20
1.54430766e-10
5.78243135e-21
-2.31297215e-20
2.30357001e-10
5.78244158e-21
5.29692576e-27
3.23639341e-10
-2.25883011e-27
-7.38471442e-27
4.4200092e-10
-3.17041005e-27
-4.62597033e-20
5.9487273e-10
5.78249561e-21
4.62598303e-20
7.9406999e-10
-5.78253363e-21
0
1.05458678e-09
-5.78257956e-21
5.31562102e-26
1.39554443e-09
-1.15652733e-20
-4.62607582e-20
1.84132557e-09
-5.78272833e-21
0
2.42291852e-09
-2.16053344e-26
0
3.17948228e-09
-2.95912782e-26
0
4.16011846e-09
5.78318483e-21
-9.25288557e-20
5.42579826e-09
5.78346817e-21
-9.25318936e-20
7.05133988e-09
-5.7838533e-21
9.2536703e-20
9.1272643e-09
0
1.85088993e-19
1.17612869e-08
5.7850828e-21
-9.25519893e-20
1.50791528e-08
0
9.25662091e-20
1.92245458e-08
5.78732771e-21
-1.85159701e-19
2.43579596e-08
-3.48594651e-25
0
3.06548104e-08
-2.79518273e-21
0
3.83027933e-08
-1.43714753e-20
9.26715329e-20
4.74970297e-08
-1.73983016e-20
2.18698655e-23
5.84149288e-08
-2.32230522e-20
-1.85605313e-19
7.110615e-08
-2.32552928e-20
0
8.52298569e-08
-1.74748879e-20
9.9335941e-08
-2.91898472e-20
-1.8599341e-19
5.78241461e-21
3.07307813e-11
0
0
9.3679817e-11
5.78242137e-21
0
1.62191238e-10
5.78242872e-21
0
2.42154424e-10
5.78243763e-21
4.6259478e-20
3.4062914e-10
5.7824491e-21
6.44271362e-27
4.6589635e-10
-2.76346417e-27
4.62596518e-20
6.28114077e-10
-3.84430305e-27
2.46894598e-26
8.4006989e-10
1.15650263e-20
4.6260011e-20
1.11807533e-09
7.34233759e-27
4.62602355e-20
1.48304757e-09
-5.78260485e-21
6.45751825e-26
1.9618231e-09
-5.78270561e-21
-9.2522068e-20
2.58874455e-09
-5.78279704e-21
-9.25234962e-20
3.40755356e-09
5.78291536e-21
-9.25249978e-20
4.4736063e-09
1.73493483e-20
0
5.85640424e-09
1.15667752e-20
9.2530668e-20
7.64240311e-09
0
2.77606332e-19
9.93804267e-09
-5.7842961e-21
-9.25413009e-20
1.28729624e-08
-1.15699909e-20
1.85102739e-19
1.66035167e-08
-5.78595466e-21
-9.255914e-20
2.13171286e-08
1.15740667e-20
-9.25776005e-20
2.72389755e-08
-8.59265026e-21
9.26005488e-20
3.46441852e-08
-8.58130245e-21
-9.26277087e-20
4.38807327e-08
-1.15904303e-20
9.26916141e-20
5.5408283e-08
-1.7401027e-20
1.85516479e-19
6.98492796e-08
-1.74249821e-20
3.730986e-23
8.79695291e-08
-1.74618966e-20
1.86085599e-19
1.10145622e-07
-1.16792063e-20
1.34438841e-07
-1.7589975e-20
-1.86469716e-19
-1.35930434e-28
3.19061597e-11
0
1.15648339e-20
9.72844599e-11
-4.16870586e-28
1.15648404e-20
1.68511409e-10
5.78242554e-21
-2.64992014e-27
2.51773737e-10
-5.78243394e-21
0
3.54502084e-10
-5.78244382e-21
-2.31297523e-20
4.85440381e-10
-5.78245474e-21
0
6.55352639e-10
5.78247174e-21