/*--------------------------------*- C++ -*----------------------------------*\
| =========                 |                                                 |
| \\      /  F ield         | foam-extend: Open Source CFD                    |
|  \\    /   O peration     | Version:     4.1                                |
|   \\  /    A nd           | Web:         http://www.foam-extend.org         |
|    \\/     M anipulation  |                                                 |
\*---------------------------------------------------------------------------*/
FoamFile
{
    version     2.0;
    format      ascii;
    class       volScalarField;
    location    "0.2";
    object      p;
}
// * * * * * * * * * * * * * * * * * * * * * * * * * * * * * * * * * * * * * //

dimensions      [0 2 -2 0 0 0 0];

internalField   nonuniform List<scalar> 
35840
(
79.3989466
64.7546376
55.689642
51.3692631
48.4183459
46.0789634
44.2388659
42.7238406
41.3978624
40.1906522
39.0648272
37.9974645
36.9738787
35.9843807
35.0221665
34.0821445
33.1603389
32.2535603
31.3592227
30.4752297
29.5998884
28.731856
27.8700975
27.0138498
26.1625905
25.31601
24.4739846
23.63655
72.5189494
62.1132096
54.9276181
51.1477324
48.3787337
46.0961863
44.276074
42.7711584
41.4471747
40.2369651
39.1065268
38.0343096
37.0060424
36.0122314
35.0461555
34.1027229
33.1779182
32.2685139
31.3718869
30.4858941
29.6088038
28.7392449
27.8761622
27.0187766
26.1665535
25.3191739
24.4765065
23.6385794
69.3283691
60.5642312
54.2103553
50.708607
48.1240456
45.9672778
44.2193412
42.7572142
41.4587121
40.2626058
39.1393595
38.0702766
37.0427489
36.0483134
35.0808726
34.1356783
33.2088951
32.2973832
31.3985597
30.510308
29.6309129
28.7590126
27.8935634
27.0338028
26.1792181
25.3295167
24.4845974
23.6445205
67.7113997
59.3759455
53.4776324
50.2511871
47.8585945
45.8408846
44.1810148
42.7711736
41.5028757
40.3229274
39.2070698
38.1401753
37.1118848
36.1151064
35.1445443
34.1958804
33.2654825
32.3502873
31.4477251
30.5556652
29.6723727
28.7964752
27.9269261
27.0629742
26.204133
25.3501509
24.5009795
23.6567416
66.6108126
58.4080579
52.8033978
49.8190903
47.5972414
45.7078596
44.1394403
42.7894781
41.5583818
40.4002832
39.2960456
38.2341535
37.2067287
36.2083142
35.234651
34.2820461
33.3472199
32.4272891
31.5197621
30.6225292
29.733854
28.8523601
27.9770022
27.1070456
26.2420404
25.3817917
24.5263273
23.6758624
65.8132683
57.6815233
52.2476047
49.4275548
47.3360477
45.5539576
44.0703703
42.7822767
41.5940481
40.4646375
39.3787645
38.3278625
37.3062733
36.3101427
35.3363241
34.3818723
33.4439932
32.5201065
31.607901
30.7053695
29.8108381
28.9229714
28.0407625
27.1635266
26.2908821
25.4227245
24.5591954
23.7006443
65.2142043
57.1234234
51.7882886
49.0772551
47.084101
45.3887507
43.9781179
42.7474843
41.6026086
40.5050615
39.4420211
38.4069911
37.3959954
36.4064812
35.4362688
34.4831112
33.544706
32.6188104
31.7033386
30.7964353
29.8965327
29.0023737
28.1130279
27.2278967
26.3467042
25.4694784
24.5965211
23.7283682
64.7478864
56.6814325
51.407424
48.7706587
46.8510117
45.2240473
43.8736323
42.693225
41.5887389
40.5229258
39.4843564
38.4678561
37.4705964
36.4909605
35.5275005
34.5785242
33.6421384
32.7163947
31.7994136
30.8894888
29.9851599
29.0852579
28.1889437
27.295725
26.4054602
25.5183459
24.6348911
23.755874
64.3761477
56.3255051
51.0916615
48.5063481
46.6412052
45.0675829
43.7661676
42.6285766
41.5602805
40.5243759
39.5101102
38.5130795
37.5311836
36.5634287
35.6088734
34.6662218
33.7338788
32.810111
31.8931918
30.9815218
30.0737168
29.1686785
28.2656484
27.3642413
26.4644626
25.5667057
24.6717298
23.780614
64.0752231
56.0354752
50.8291706
48.2803222
46.4559207
44.9240158
43.6624053
42.5609861
41.5245468
40.5160755
39.525038
38.5474139
37.5815174
36.6267318
35.6824331
34.7475761
33.8207517
32.900353
31.9847355
31.072344
30.1618215
29.2520996
28.3424702
27.432638
26.5227558
25.6134351
24.7057278
23.8010774
63.8292397
55.7973028
50.6106205
48.0883521
46.2948814
44.7958616
43.5666982
42.4957951
41.4872055
40.5035837
39.5343356
38.5755588
37.625753
36.6844881
35.7513014
34.8252713
33.9050674
32.9891211
32.0757868
31.1634806
30.250807
29.3366682
28.4203584
27.5016404
26.5808021
25.6586865
24.736683
23.8166761
63.6271245
55.600994
50.4287944
47.9264514
46.1569001
44.6841111
43.4816076
42.4365595
41.4523236
40.4911288
39.5421673
38.6014838
37.667602
36.7401348
35.8186549
34.902253
33.9895801
33.0790139
32.1688178
31.2572945
30.3429272
29.4245101
28.5012698
27.5729734
26.640017
25.7034827
24.7651474
23.8274311
63.460842
55.4391696
50.2780032
47.79101
46.0403417
44.5887998
43.408461
42.3855085
41.4226854
40.4817811
39.5517028
38.6283418
37.7101382
36.7966436
35.8873669
34.9813186
34.0770409
33.1727621
32.2665613
31.3565281
30.4409206
29.5183206
28.5877896
27.6490183
26.7024612
25.7494348
24.7921571
23.833702
63.3243423
55.3061936
50.1536836
47.6788373
45.943409
44.5093882
43.3477507
42.3439092
41.4000918
40.4776771
39.5652677
38.6585509
37.7558177
36.856487
35.959931
35.0650048
34.1700555
33.2730715
32.3718452
31.464138
30.5478543
29.6212272
28.6830169
27.7327168
26.7707534
25.79865
24.8191194
23.8360386
63.2129148
55.1976259
50.0520998
47.5871229
45.8642784
44.4449914
43.2994033
42.3123356
41.3856005
40.4802164
39.5844939
38.6939006
37.8065449
36.9216715
36.0384678
35.1555691
34.2710548
33.3825855
32.4875577
31.5832716
30.6671211
29.7368119
28.7906137
27.8276418
26.8481509
25.8538022
24.8478469
23.8351521
63.122775
55.109864
49.9701236
47.5133745
45.8011607
44.3945196
43.2629599
42.2908574
41.3797018
40.4902118
39.6104382
38.7356375
37.8637302
36.9937719
36.1247329
35.2549857
34.3822829
33.5038742
32.6166467
31.7172894
30.8024939
29.869207
28.9149461
27.9381802
26.9387576
25.9183334
24.8807095
23.8319712
63.0507931
55.0399028
49.9050759
47.4553558
45.752324
44.3567586
43.2376908
42.279168
41.3824415
40.5079951
39.6436648
38.7845245
37.9283268
37.0739398
36.2201084
35.3649226
34.5057663
33.6394059
32.7621068
31.8697809
30.9581889
30.0232212
29.0612837
28.0698036
27.047845
25.9967806
24.9209004
23.8277687
62.994311
54.9851708
49.8546111
47.4110318
45.7160945
44.3304151
43.2226685
42.2766677
41.393503
40.5334881
39.6842996
38.8408781
38.000839
37.1628885
36.3255675
35.4866887
34.64325
33.7914833
32.9269293
32.0445502
31.1389107
30.2044714
29.2360404
28.229426
27.1823053
26.0952637
24.9728519
23.8243803
62.9510167
54.9434162
49.8166342
47.3785245
45.6908497
44.3141405
43.2168113
42.2825192
41.412261
40.5662486
39.7320677
38.9045775
38.081307
37.2608566
36.4416114
35.6211454
34.7960893
33.9621239
33.113991
32.2455392
31.3498479
30.4194947
29.4470456
28.4258599
27.351279
26.2222004
25.0428728
23.8245414
62.918859
54.9126293
49.7892424
47.3560789
45.6750104
44.3065443
43.2189131
42.2956815
41.4378179
40.6055073
39.786306
38.9750567
38.16928
37.367549
36.568176
35.7685769
34.9650853
34.1528707
33.3258567
32.4766558
31.5965773
30.6757972
29.7038178
28.6703844
27.5670332
26.3893977
25.1401866
23.8324547
62.8959893
54.890989
49.7706841
47.3420392
45.6670343
44.306204
43.2276618
42.314938
41.4690406
40.6501846
39.8459656
39.0512946
38.2637761
37.482062
36.7045124
35.9285195
35.1502577
34.3645104
33.5644589
32.7414502
31.8848022
30.9817565
30.0177647
28.9773843
27.8461364
26.6137295
25.2787899
23.855123
62.8807246
54.8768294
49.7593346
47.334836
45.6654157
44.3116727
43.241659
42.3389332
41.5045798
40.6989043
39.9096229
39.1318037
38.3632418
37.6028003
36.8490496
36.0995528
35.3505511
34.5966832
33.8306146
33.0425709
32.2198245
31.3462479
30.4021678
29.3649294
28.2108066
26.9191881
25.47976
23.9040282
62.8715262
54.8686203
49.7536826
47.3329815
45.6686873
44.3214939
43.2594586
42.3661925
41.5428919
40.7500236
39.9754972
39.2146283
38.4655204
37.7274019
36.9992534
36.279068
35.5634786
34.8473726
34.1233396
33.3809112
32.6055978
31.777796
30.8717929
29.8553747
28.6909981
27.340337
25.7743351
23.9946594
62.8669918
54.8649584
49.7523279
47.3350699
45.6754357
44.3342394
43.2795857
42.3951475
41.5822838
40.8016739
40.0414851
39.2973671
38.5678507
37.8526927
37.1515113
36.4630422
35.7847359
35.1122914
34.4389353
33.7543428
33.043116
32.2827792
31.4414014
30.47532
29.328033
27.9326211
26.2218449
24.1645553
62.8658676
54.8645689
49.7539758
47.3398044
45.6843306
44.3485268
43.3005598
42.4241903
41.6209682
40.8518207
40.1052238
39.3772334
38.6669123
37.9747002
37.3010819
36.6458756
36.0078477
35.3842292
34.7698935
34.1560102
33.5279363
32.8620703
32.1215091
31.250584
30.1697185
28.7720157
26.9296742
24.528213
62.8670164
54.8663167
49.757479
47.3460019
45.694138
44.3630412
43.320952
42.4517318
41.657133
40.8983477
40.1641891
39.4511648
38.7589418
38.0887608
37.442166
36.8203708
36.2239626
35.6525074
35.1037808
34.572348
34.0470511
33.5067195
32.9131356
32.1998373
31.2570896
29.9130149
27.9486474
25.0836823
62.8694319
54.8692234
49.7618466
47.3526046
45.7037457
44.3765857
43.3394383
42.4762693
41.6890282
40.9391661
40.2158321
39.5159914
38.8399354
38.189755
37.5681591
36.9779628
36.4219629
35.9027737
35.4223557
34.9809342
34.5747535
34.1916333
33.8020486
33.3411881
32.6731267
31.5210284
29.4140723
25.3927344
62.8722972
54.8724769
49.7662348
47.3587243
45.7122068
44.3881249
43.3548553
42.4964609
41.7150643
40.972344
40.2577494
39.5686606
38.9059443
38.2724931
37.6721437
37.1093175
36.5891252
36.1175551
35.7015486
35.3487723
35.0667358
34.8604539
34.7264734
34.6383111
34.510165
34.1053761
32.7167512
27.4587436
72.6781827
62.2360827
55.0003868
51.1719022
48.3672137
46.0598266
44.2230472
42.7087464
41.3813805
40.1721125
39.0454072
37.9785015
36.9562354
35.9685189
35.0082732
34.0702212
33.150275
32.2451945
31.3523772
30.4697242
29.5955501
28.7285225
27.8676167
27.0120784
26.1613935
25.3152592
24.4735585
23.6363328
64.9584533
59.5642045
54.6433202
51.3694626
48.6987183
46.3860394
44.491509
42.9203823
41.5476861
40.3032637
39.1503913
38.0642958
37.0275629
36.0285348
35.0591964
34.1136768
33.1874916
32.2771357
31.3798236
30.4933209
29.6158407
28.7459742
27.8826385
27.0250342
26.1726115
25.3250391
24.4821754
23.6440401
61.7180834
58.2149274
54.2220555
51.1519115
48.6177136
46.409948
44.5564847
42.9949807
41.6225467
40.3744179
39.2162119
38.1247297
37.083048
36.0795276
35.1061023
34.1568345
33.2271644
32.3135207
31.4130671
30.5235341
29.6431105
28.7703713
27.9042262
27.0438775
26.1887842
25.3386307
24.4932967
23.6528266
60.1416268
57.0590132
53.5455325
50.7556786
48.4107966
46.3435153
44.5740394
43.0557403
41.7044873
40.4648233
39.3074682
38.2129137
37.1664831
36.1576557
35.1788884
34.224464
33.289876
32.3715236
31.4665115
30.5725083
29.6876503
28.8104754
27.9398731
27.0750431
26.2154599
25.3608389
24.5111045
23.6663565
59.0357197
56.0598901
52.8609785
50.3415694
48.1706154
46.2271244
44.5462022
43.0857445
41.7702409
40.5514827
39.4048633
38.3143291
37.2677742
36.2563867
35.2736817
34.3145728
33.3749043
32.4512477
31.5407762
30.6411723
29.7505645
28.8674793
27.9908032
27.1197489
26.2538231
25.3927942
24.5366589
23.6856051
58.2283536
55.3148538
52.2949116
49.9538851
47.9134448
46.0721177
44.4732812
43.073819
41.8012301
40.6119661
39.4848424
38.4063148
37.3663484
36.3577499
35.3751958
34.4143967
33.4717268
32.5440954
31.6288809
30.7238876
29.827317
28.9377469
28.0541104
27.1756756
26.3020217
25.4330109
24.5687551
23.7095778
57.621198
54.7432884
51.8231238
49.5989398
47.6593056
45.9028971
44.3753495
43.0325143
41.8030077
40.6459577
39.5424733
38.4807503
37.4522325
36.4509649
35.4725834
34.5135085
33.5706272
32.6412091
31.7228796
30.8136103
29.9117203
29.0158792
28.1251061
27.2387629
26.3565416
25.4784424
24.6047424
23.7359551
57.1478952
54.2904262
51.431112
49.2866102
47.4235403
45.735231
44.2669353
42.9736639
41.7841727
40.65883
39.5801193
38.5373989
37.5231214
36.5322028
35.560986
34.6064376
33.6658555
32.7368106
31.8171439
30.9049808
29.9987551
29.0972329
28.1995297
27.3051196
26.4138339
25.5258465
24.6416463
23.7619939
56.7704717
53.9263368
51.1068777
49.0174434
47.2113527
45.576699
44.157059
42.90631
41.7527998
40.6572866
39.6029638
38.5799057
37.5812214
36.6024115
35.6403098
34.692272
33.7558916
32.8289561
31.9094598
30.9956351
30.0859967
29.1793831
28.2749925
27.3724084
26.4716118
25.5729758
24.6772431
23.7854794
56.4650879
53.6301874
50.8379608
48.7874318
47.0240023
45.4316593
44.0518937
42.8372936
41.7155862
40.6474739
39.6164097
38.6128366
37.630247
36.6645005
35.7127419
34.7725762
33.8417821
32.9182746
32.0001267
31.085617
30.1732883
29.2620087
28.3510261
27.440013
26.5290995
25.6188803
24.7103929
23.8050683
56.2156406
53.3873614
50.6144957
48.592281
46.8612636
45.3024428
43.9553713
42.7713993
41.6775793
40.6343324
39.6250875
38.6404055
37.6739517
36.7217657
35.781153
34.8498429
33.9256951
33.0066607
32.0908115
31.1763989
30.2619262
29.3462298
28.4285595
27.5086473
26.586758
25.6637164
24.7408987
23.8201792
56.0108374
53.1874711
50.4288735
48.4278587
46.7218932
45.1898792
43.8697697
42.7118249
41.6424442
40.6216704
39.6327495
38.6661949
37.715693
36.7773257
35.8484357
34.9267678
34.010163
33.096517
32.1838135
31.2701898
30.3540265
29.4340511
28.5094448
27.5799415
26.6459129
25.7084225
24.7692345
23.8307603
55.8424578
53.0228492
50.2751015
48.2903958
46.6041848
45.0939094
43.7962672
42.6606085
41.6127452
40.6123213
39.6423247
38.6931228
37.7583203
36.8339402
35.9172656
35.0059624
34.0977617
33.1904125
32.2817151
31.3695927
30.4521995
29.5280486
28.5961538
27.6561704
26.7085259
25.7545171
24.7963484
23.8370863
55.7043033
52.8876492
50.1483956
48.1765765
46.5062859
45.0139423
43.7352807
42.6189201
41.5901706
40.6082994
39.6560131
38.7234832
37.8041691
36.8939666
35.9900251
35.089854
34.1909926
33.2909535
32.3872495
31.4774744
30.559427
29.6312693
28.6917107
27.7402058
26.7771505
25.8040453
24.8235874
23.8396473
55.5915478
52.7772791
50.0448623
48.0834957
46.4263298
44.9490621
43.686699
42.5872867
41.5757246
40.6109464
39.6753873
38.7590068
37.8550884
36.9593576
36.0687784
35.1806454
34.2922356
33.4007342
32.5032575
31.596937
30.6790595
29.7472569
28.7997441
27.8355926
26.8550208
25.8596615
24.8527461
23.8391341
55.5003193
52.6880257
49.96126
48.0085908
46.3624947
44.8981595
43.6500448
42.5657578
41.5698745
40.6210506
39.7014794
38.8009182
37.9124671
37.0316622
36.1552568
35.2802901
34.4037147
33.5223048
32.6326681
31.7313249
30.814858
29.8801375
28.9246209
27.946726
26.9462565
25.9248289
24.8862175
23.8364955
55.4274227
52.6168042
49.8948278
47.9495738
46.3130239
44.8600081
43.6245799
42.5540188
41.5726579
40.6389359
39.7348479
38.8499753
37.977248
37.1120225
36.2508369
35.3904517
34.5274512
33.6581293
32.7784741
31.8842294
30.9710464
30.0347355
29.0716365
28.0791159
27.0561794
26.0041452
24.9272591
23.8330664
55.3701515
52.5609849
49.8431616
47.9043722
46.2762257
44.8333062
43.6093727
42.5514681
41.5837573
40.6645257
39.7756216
38.9064895
38.0499312
37.2011536
36.3564947
35.5124395
34.6651911
33.8105133
32.9436728
32.059466
31.1523484
30.2166984
29.2472508
28.2397404
27.191766
26.103832
24.9804169
23.8307951
55.3261592
52.518275
49.804125
47.8710812
46.2504648
44.8166999
43.6033402
42.5572692
41.6025522
40.6973842
39.8235211
38.9703374
38.1305618
37.2992984
36.4727328
35.6471171
34.8182937
33.9814806
33.1311513
32.2609932
31.3639801
30.4326062
29.4593576
28.4375032
27.3622761
26.232451
25.0521589
23.8325744
55.2933704
52.4866357
49.7757858
47.8479271
46.2341529
44.8087955
43.6052766
42.5703869
41.628153
40.7367364
39.8778804
39.0409587
38.2186928
37.4061632
36.5994893
35.7947724
34.9875646
34.1725811
33.3434854
32.492738
31.61155
30.6900176
29.7175582
28.6838056
27.5801415
26.4020109
25.1519016
23.8427199
55.2699205
52.4642267
49.7563735
47.8332422
46.2257424
44.8081694
43.6138754
42.589613
41.6594183
40.781498
39.9376557
39.1173348
38.3133429
37.5208457
36.7360178
35.9549444
35.1730277
34.3846073
33.582618
32.7582693
31.9007953
30.9973685
30.0333546
28.9931778
27.8621516
26.6296992
25.2940043
23.868523
55.2541173
52.44937
49.7442514
47.82545
46.2237253
44.8133802
43.627747
42.613581
41.6949922
40.8302973
40.0014246
39.1979774
38.4129585
37.6417513
36.8807479
36.1262138
35.3736287
34.6172029
33.8493736
33.0602517
32.2370498
31.3635902
30.420114
29.3837991
28.2306157
26.9395626
25.499596
23.9218564
55.2444174
52.4405292
49.7379024
47.8230607
46.2266395
44.8229795
43.6454324
42.640807
41.7333353
40.8814912
40.0674044
39.2809298
38.5153826
37.7665173
37.0311447
36.3059702
35.5868795
34.8683504
34.1427701
33.3995886
32.6242942
31.7972656
30.8927084
29.8781491
28.7154228
27.3653243
25.7970597
24.0127766
55.2394145
52.4362995
49.7359261
47.8246758
46.2330762
44.8355269
43.6654451
42.6697282
41.7727538
40.9332095
40.1334905
39.3637893
38.6178516
37.8919668
37.1835917
36.490186
35.8084693
35.1337552
34.4591016
33.774147
33.063526
32.3048002
31.4659956
30.5030771
29.3585655
27.9636757
26.2449567
24.1703431
55.237834
52.4354027
49.7370371
47.8289956
46.2416959
44.8496283
43.6863108
42.6987366
41.8114593
40.9834162
40.197318
39.4437661
38.7170413
38.0141222
37.3333409
36.6732522
36.0319111
35.4061919
34.7908423
34.1770514
33.5502728
32.8869839
32.1501243
31.2833956
30.2061037
28.8094225
26.9550049
24.5308028
55.2385537
52.4367099
49.7400856
47.834831
46.2512588
44.8639746
43.7066032
42.726244
41.8476395
41.0299937
40.25636
39.5177937
38.8091828
38.1283123
37.4745827
36.8479572
36.2483335
35.6749565
35.1255325
34.5947282
34.0715764
33.5349633
32.9460337
32.236065
31.2906539
29.9257694
27.9078221
24.981009
55.2406139
52.4392552
49.7440744
47.8411308
46.2606585
44.8773734
43.725001
42.7507485
41.8795438
41.0708511
40.3080642
39.5826974
38.8902653
38.2294083
37.6006987
37.0057145
36.4465854
35.9256469
35.444867
35.0047147
34.6018565
34.2243656
33.8421793
33.3868883
32.7109607
31.4897263
29.1806172
24.6103454
55.2432132
52.4422304
49.7481662
47.8470127
46.2689533
44.8887937
43.7403441
42.7709097
41.9055824
41.1040549
40.3500239
39.6354195
38.9563331
38.3122097
37.7047549
37.1371622
36.6138945
36.1407002
35.7246129
35.3737334
35.0963444
34.8984719
34.7780959
34.7100184
34.6068458
34.2005105
32.7138017
26.336992
69.7610149
60.9525773
54.514806
50.9104135
48.2338821
46.001097
44.1927272
42.6864785
41.3589847
40.1462084
39.0155691
37.9456568
36.9216371
35.9333573
34.9735294
34.0366181
33.1182954
32.2151306
31.3243819
30.4438533
29.5717955
28.7068351
27.8479207
26.9942806
26.1453884
25.3009318
24.4607851
23.6249824
62.0047756
58.5001456
54.4792533
51.355118
48.7604028
46.497296
44.5975741
43.0004219
41.6024724
40.3370917
39.1678894
38.0700213
37.0252734
36.0210148
35.0484493
34.1011176
33.1740954
32.2635603
31.3665076
30.4805553
29.603817
28.7348156
27.8724204
27.0157982
26.1643735
25.3177942
24.4759009
23.6386968
58.7622119
57.2670661
54.2698706
51.3322773
48.8440472
46.6669561
44.7769251
43.1543368
41.7311126
40.4459241
39.2608661
38.1505347
37.0960768
36.0840392
35.1050205
34.1521801
33.2203288
32.3054541
31.40442
30.5147564
29.6345172
28.7621856
27.8966073
27.0369378
26.1826011
25.3332527
24.4887474
23.649107
57.2062049
56.1444411
53.6622762
51.0248955
48.7297713
46.6925054
44.8762404
43.2798431
41.8621728
40.5738328
39.38104
38.2612284
37.1973263
36.1765225
35.1895303
34.2294729
33.29106
32.3701453
31.4634597
30.5684193
29.6829888
28.8055868
27.9350186
27.0704223
26.2112251
25.3571045
24.5079523
23.663839
56.1034394
55.1432121
52.9944978
50.6523281
48.5384453
46.6229959
44.8906352
43.3452013
41.9562189
40.6832973
39.4973089
38.3786343
37.3124425
36.2873867
35.2950444
34.3290605
33.3844507
32.4572217
31.5441618
30.6426932
29.7507658
28.866781
27.9895353
27.1181744
26.2521538
25.3912002
24.5352745
23.6845332
55.2913305
54.3908166
52.4297606
50.2800301
48.3008569
46.4858671
44.8339283
43.3475314
41.9989343
40.7533825
39.5855582
38.4781297
37.4180932
36.3955631
35.4031582
34.4352441
33.4873377
32.5557834
31.6375854
30.7303013
29.8319673
28.941047
28.0563926
27.1772127
26.3030404
25.433701
24.5692754
23.7100591
54.6774185
53.8101323
51.951007
49.925341
48.0507877
46.3209984
44.7403853
43.3106037
42.0045443
40.7905384
39.6459515
38.5551985
37.5066609
36.4916242
35.503601
34.5376042
33.5896241
32.6563495
31.7350292
30.823393
29.9196039
29.0222276
28.1302121
27.2428689
26.3598531
25.481136
24.6069711
23.7378515
54.1970854
53.3480188
51.5498314
49.6080217
47.8131528
46.1522773
44.6313165
43.2516125
41.9858202
40.8035448
39.6837527
38.612097
37.5779586
36.5734845
35.5928774
34.6316675
33.6862276
32.7535293
31.8310264
30.9165982
30.0085218
29.1054617
28.2064665
27.3109649
26.4187565
25.5299932
24.6451469
23.7649643
53.8132739
52.9757891
51.2170146
49.3326484
47.5968631
45.9904513
44.518722
43.1822683
41.953042
40.8009449
39.7057703
38.6539668
37.6355959
36.6434062
35.6721027
34.7176021
33.7765624
32.8461604
31.9239947
31.008045
30.0966644
29.1885871
28.2829427
27.3792697
26.477519
25.5780447
24.6815761
23.7891691
53.5024591
52.6728393
50.9407043
49.096586
47.4048533
45.8414979
44.410304
43.1107671
41.9140046
40.7897653
39.718159
38.6860644
37.6839571
36.7049698
35.7441397
34.7976429
33.8623237
32.935483
32.0147944
31.0982789
30.184313
29.271656
28.3594844
27.4474243
26.5355736
25.6245052
24.715244
23.8092151
53.2485318
52.4244529
50.7111095
48.8961103
47.2377258
45.7085119
44.3106362
43.0424322
41.8741815
40.7752712
39.7258108
38.7128367
37.7270267
36.7617186
35.8121319
34.8745815
33.9459985
33.0237222
32.1054247
31.1890969
30.2730729
29.3560777
28.4372856
27.5163762
26.5935798
25.6696988
24.7460957
23.8246394
53.0400819
52.2200587
50.5204945
48.7272051
47.0945031
45.5925742
44.2222023
42.9806413
41.8373854
40.7613776
39.7325528
38.7379254
37.7682184
36.8168348
35.8790513
34.9512121
34.0302382
33.1134182
32.1983364
31.2828692
30.3652263
29.4440191
28.51835
27.5878979
26.652996
25.7146827
24.7747074
23.8354759
52.8687424
52.0517886
50.3626673
48.586025
46.9735056
45.4936747
44.1462233
42.9274732
41.806214
40.750936
39.7413178
38.7642442
37.810375
36.8730743
35.9475765
35.0301602
34.1176456
33.2071791
32.2961632
31.3822594
30.4634491
29.5381282
28.6052275
27.6643426
26.7158591
25.7610446
24.802086
23.8420443
52.7281745
51.9136142
50.232649
48.4691261
46.8728222
45.4111893
44.0830894
42.884078
41.78234
40.7459439
39.7542859
38.7940647
37.8558093
36.9327727
36.0200715
35.1138407
34.2107166
33.3076124
32.4016448
31.4901479
30.5707466
29.6414815
28.7009757
27.7486185
26.7847573
25.8108586
24.829599
23.8448437
52.6134322
51.8007924
50.1263796
48.373474
46.7905001
45.3441388
44.0326379
42.8509429
41.7667375
40.7477182
39.7730066
38.8290955
37.9063479
36.9978614
36.0985825
35.2044414
34.3118172
33.4173009
32.5176169
31.6096376
30.6904739
29.7576324
28.8092352
27.8442815
26.8629333
25.8667814
24.8590325
23.8445424
52.5205464
51.7094905
50.0404836
48.2963927
46.7246326
45.2913471
43.9943377
42.8280763
41.7598433
40.7570231
39.7984916
38.8705417
37.963362
37.0698751
36.1848275
35.3039004
34.4231578
33.5387861
32.6470041
31.7440718
30.8263937
29.8907099
28.9343771
27.9557305
26.9545044
25.9322619
24.8927456
23.8420288
52.4462464
51.6365309
49.9720962
48.2355024
46.67339
45.2515284
43.967403
42.8151269
41.761668
40.7741622
39.8312818
38.9191465
38.0277839
37.1499457
36.2801697
35.4138708
34.546754
33.6745296
32.7927975
31.897042
30.9827331
30.0455448
29.0817045
28.0884788
27.0647841
26.0118652
24.9339245
23.8385129
52.3877682
51.5792144
49.9187347
48.1886597
46.6350217
45.2233326
43.9508627
42.8114637
41.7718721
40.7990414
39.8714925
38.9752136
38.1001059
37.2387771
36.3855783
35.5356606
34.6843519
33.8268364
32.9579966
32.07237
31.1642278
30.2278013
29.2576945
28.2495148
27.2007363
26.1117549
24.9869824
23.8357069
52.3427225
51.5351967
49.8782048
48.1539066
46.6078478
45.2053681
43.943604
42.8162269
41.7898169
40.8312109
39.918839
39.0386132
38.1803645
37.3366095
36.5015587
35.6701346
34.837311
33.9977342
33.145498
32.2740324
31.3761207
30.4440951
29.4702805
28.4477705
27.3716087
26.2403928
25.0581371
23.8360486
52.3090033
51.5024021
49.8485332
48.1294317
46.5902479
45.1962143
43.9443988
42.8283631
41.8145986
40.8698923
39.9726483
39.1087786
38.2681138
37.4431545
36.62805
35.8175814
35.0064423
34.1887845
33.357899
32.5059909
31.6240738
30.7020586
29.7291515
28.6947264
27.5898514
26.4096444
25.1563472
23.8429219
52.2847246
51.4789645
49.8279211
48.1135418
46.5806528
45.1944293
43.9519246
42.8466512
41.8450738
40.9139957
40.0318746
39.1846963
38.3623783
37.5575106
36.7643076
35.9775459
35.1917811
34.4008013
33.59718
32.7718773
31.9139227
31.0102692
30.0459906
29.0051038
27.8723733
26.636594
25.2953742
23.8621482
52.2681803
51.4631895
49.8147142
48.1046451
46.5775411
45.1985591
43.9647823
42.8697245
41.8798852
40.962151
40.0951039
39.2648838
38.4616062
37.6780862
36.9087673
36.1486193
35.3922915
34.6334618
33.8642262
33.074462
32.2511759
31.3779259
30.4345321
29.397497
28.2417861
26.9451657
25.4953552
23.903431
52.257819
51.4535309
49.8073865
48.101244
46.5794428
45.2071512
43.9815161
42.8961044
41.9174995
41.0127276
40.1605599
39.3473885
38.5636455
37.8025255
37.0589029
36.3282051
35.6055106
34.8847959
34.1581451
33.4148141
32.6401083
31.8141071
30.9104178
29.8954367
28.7290412
27.3692289
25.7819088
23.9691788
52.2522322
51.4485814
49.8045339
48.1019367
46.5849489
45.2187729
44.0006506
42.9242379
41.9562375
41.0638626
40.2261446
39.4298152
38.665741
37.92766
37.2111086
36.5122918
35.827157
35.1505674
34.4753489
33.7910339
33.0821622
32.3260305
31.4899296
30.5281774
29.3797717
27.9700693
26.2158034
24.0802018
52.2501519
51.447073
49.8048781
48.1054261
46.5927319
45.232045
44.0207246
42.9525323
41.9943205
41.11353
40.2895039
39.5093847
38.7645779
38.0495216
37.3606468
36.6952852
36.0507708
35.4236103
34.8084462
34.1965437
33.5734873
32.9156934
32.1854242
31.3241207
30.2458821
28.8330579
26.9288723
24.4102478
52.2504548
51.447877
49.8072735
48.1105368
46.601569
45.2456716
44.0403255
42.9794119
42.0299489
41.1596252
40.3481235
39.5830417
38.8563975
38.1634477
37.5017145
36.869979
36.2674899
35.6932511
35.1450812
34.6180789
34.1019471
33.5762226
33.0019314
32.3072144
31.3689978
29.9840986
27.8894965
24.8232995
52.2521728
51.4500121
49.8107227
48.1162365
46.6103679
45.2584719
44.0581456
43.0033892
42.0613866
41.2000713
40.3994641
39.6476237
38.9371993
38.2643159
37.6276929
37.0277741
36.4661316
35.9450335
35.4668904
35.0332209
34.6425019
34.2854855
33.9349297
33.5223675
32.8907905
31.6653433
29.2032066
24.0710578
52.2545064
51.4526674
49.8143964
48.1216562
46.6181984
45.2694272
44.0730383
43.0231379
42.0870577
41.2329483
40.441132
39.7000845
39.0030364
38.3469287
37.7316385
37.1592737
36.6338367
36.1612067
35.7492644
35.4079908
35.1492655
34.9854542
34.9249478
34.9583882
35.0178275
34.8141007
33.4226091
25.9591822
68.534951
60.1410183
54.1105661
50.7150357
48.1622338
46.0033703
44.2252544
42.7239592
41.3901899
40.1667522
39.0247384
37.9446658
36.9124302
35.9179714
34.9538059
34.0140889
33.0941668
32.1903171
31.2995581
30.4195067
29.5482722
28.6843757
27.8266877
26.9743786
26.1268772
25.2838363
24.4451015
23.6106818
60.8287853
57.7313701
54.146886
51.2389108
48.7640674
46.5740097
44.6976092
43.0940559
41.6799434
40.3964563
39.2100761
38.0975858
37.0412728
36.0282464
35.0492287
34.0972858
33.1670738
32.2544231
31.3560571
30.469389
29.5923791
28.7234361
27.8613441
27.0052057
26.154396
25.3085239
24.4673977
23.6309933
57.6090949
56.535174
54.0145628
51.3146964
48.9490576
46.8433328
44.965216
43.317614
41.861082
40.5449983
39.3333592
38.2015176
37.1305978
36.1063078
35.1182636
34.1588341
33.2222248
32.3039584
31.4005512
30.5092795
29.628012
28.7550951
27.8892721
27.029621
26.1755056
25.3265336
24.48252
23.6434524
56.0802942
55.4496888
53.4558865
51.0656345
48.8984495
46.9355628
45.1282859
43.4980146
42.0369126
40.7089743
39.4824396
38.3353386
37.2505572
36.2142316
35.2157614
34.2472121
33.3025142
32.3769423
31.4668053
30.5692204
29.68194
28.8032295
27.93178
27.0666433
26.2071796
25.3530124
24.5039884
23.6601392
54.9938537
54.4676848
52.811901
50.7238748
48.742298
46.9022433
45.1772186
43.5937163
42.1561474
40.8391021
39.6158317
38.4671526
37.3780666
36.336032
35.3311261
34.3557823
33.4041429
32.471581
31.5544317
30.649804
29.755432
28.8695647
27.9908882
27.1184659
26.2516892
25.3902339
24.5340182
23.6831612
54.1882752
53.7235258
52.2584494
50.3673378
48.5226656
46.7827809
45.1370006
43.6105195
42.2106921
40.9185986
39.7117401
38.5731518
37.4895109
36.4496205
35.4444799
34.4671341
33.5121515
32.5751988
31.6528036
30.7422006
29.8412105
28.9481507
28.0617716
27.1812089
26.3059417
25.4357531
24.5706897
23.7110171
53.5758966
53.145673
51.7837631
50.018702
48.2799392
46.6253385
45.0505256
43.5799129
42.2214198
40.9596334
39.7750982
38.652627
37.5802007
36.5477309
35.5470506
34.5717864
33.6169242
32.6784368
31.7530708
30.838218
29.9318184
29.0322904
28.138483
27.2496407
26.365371
25.4856113
24.6105889
23.7407755
53.0946533
52.6833786
51.382706
49.7024142
48.0442745
46.4588813
44.9436863
43.5229533
42.2042931
40.973712
39.8135676
38.7099673
37.6518554
36.629973
35.63682
34.6665115
33.714388
32.7766821
31.8503287
30.9328552
30.022306
29.1171921
28.2164601
27.3194707
26.4259784
25.5361036
24.6502969
23.7692893
52.7089317
52.3096518
51.0483544
49.4258632
47.8273496
46.2966808
44.8308388
43.4534567
42.1713557
40.9708513
39.8352358
38.7514634
37.7091481
36.6996179
35.7158693
34.7523976
33.804819
32.8695629
31.9437007
31.0248531
30.1111332
29.2011155
28.293823
27.3887225
26.4857175
25.5851307
24.6876708
23.7943802
52.3959738
52.0048011
50.7699596
49.1877521
47.6335467
46.1461472
44.7210513
43.3808274
42.1313789
40.9588429
39.8468784
38.7829031
37.7569441
36.7607081
35.787526
34.8321552
33.8903984
32.9588083
32.0345301
31.1152227
30.1990193
29.2845155
28.3707769
27.4573545
26.5442954
25.6321382
24.7218862
23.814952
52.1400163
51.7545265
50.5382452
48.9850464
47.4642791
46.0111744
44.6196169
43.3109981
42.090314
40.943307
39.8536527
38.8089427
37.7994067
36.8169561
35.8551086
34.9087664
33.9738235
33.0468739
32.1250626
31.2060187
30.287832
29.3690615
28.4487677
27.5265512
26.6025882
25.6776445
24.7530596
23.8306893
51.9297782
51.5484308
50.3456986
48.8140423
47.3189491
45.89322
44.5293573
43.2476394
42.0522083
40.9283291
39.8595036
38.833306
37.8400106
36.8715954
35.9216409
34.9850849