/*--------------------------------*- C++ -*----------------------------------*\
| =========                 |                                                 |
| \\      /  F ield         | foam-extend: Open Source CFD                    |
|  \\    /   O peration     | Version:     4.1                                |
|   \\  /    A nd           | Web:         http://www.foam-extend.org         |
|    \\/     M anipulation  |                                                 |
\*---------------------------------------------------------------------------*/
FoamFile
{
    version     2.0;
    format      ascii;
    class       surfaceScalarField;
    location    "0.2";
    object      phi;
}
// * * * * * * * * * * * * * * * * * * * * * * * * * * * * * * * * * * * * * //

dimensions      [0 3 -1 0 0 0 0];

internalField   nonuniform List<scalar> 
102656
(
0.00039526099
5.30267141e-05
5.17122962e-05
0.000281609572
5.82612792e-05
5.53901376e-05
0.000200388246
4.23599126e-05
3.88614135e-05
0.00014889014
2.74477507e-05
2.40503552e-05
0.000117043185
1.73737142e-05
1.44732404e-05
9.68263936e-05
1.1225432e-05
8.99135873e-06
8.35620671e-05
7.39707298e-06
5.86725355e-06
7.46517344e-05
4.89390723e-06
4.01642563e-06
6.84839299e-05
3.24771974e-06
2.92008519e-06
6.40431308e-05
2.16834447e-06
2.2724553e-06
6.07189927e-05
1.45023815e-06
1.87390085e-06
5.81470445e-05
9.62451686e-07
1.60949752e-06
5.61032865e-05
6.25171971e-07
1.41858711e-06
5.44458365e-05
3.88201428e-07
1.26924976e-06
5.30818322e-05
2.19312664e-07
1.14469282e-06
5.19477367e-05
9.78230097e-08
1.03627359e-06
5.0997787e-05
1.04024289e-08
9.39548389e-07
5.01975742e-05
-5.18249691e-08
8.52038715e-07
4.95201807e-05
-9.48447054e-08
7.72238989e-07
4.89436216e-05
-1.22600999e-07
6.99160809e-07
4.84494142e-05
-1.37845781e-07
6.32053719e-07
4.80217121e-05
-1.42628152e-07
5.70330666e-07
4.76467239e-05
-1.38553046e-07
5.13541418e-07
4.73123215e-05
-1.2694571e-07
4.6134823e-07
4.70077924e-05
-1.08981755e-07
4.13510828e-07
4.67236922e-05
-8.57712878e-08
3.69871371e-07
4.64517606e-05
-5.84045545e-08
3.30335807e-07
-2.79678717e-08
2.94853203e-07
4.6184875e-05
0.000461998911
2.77116455e-05
6.33161574e-05
0.000392853517
5.22457253e-05
7.51609462e-05
0.000323886801
5.01977742e-05
6.11288542e-05
0.000266759565
4.04816952e-05
4.40932905e-05
0.000223840213
3.04889354e-05
2.98041311e-05
0.000193126034
2.23532928e-05
1.95863178e-05
0.000171289559
1.62933204e-05
1.29402277e-05
0.00015554767
1.18544591e-05
8.7813385e-06
0.00014396345
8.61069659e-06
6.22124429e-06
0.000135225365
6.25423567e-06
4.65219468e-06
0.000128462468
4.54297786e-06
3.67015954e-06
0.000123105501
3.29217541e-06
3.02724524e-06
0.000118779098
2.36900402e-06
2.58257272e-06
0.000115230258
1.67987207e-06
2.25717161e-06
0.00011228415
1.15949879e-06
2.00592395e-06
0.000109816334
7.62956154e-07
1.80268431e-06
0.000107735208
4.59514066e-07
1.63201652e-06
0.000105970737
2.2811707e-07
1.48453013e-06
0.000104467467
5.41823995e-08
1.35424372e-06
0.000103180432
-7.26634197e-08
1.23709873e-06
0.000102072278
-1.5993111e-07
1.13023981e-06
0.000101111176
-2.13175083e-07
1.03164973e-06
0.000100269491
-2.36776001e-07
9.39907882e-07
9.95229429e-05
-2.34417888e-07
8.540203e-07
9.88500488e-05
-2.09414957e-07
7.73327019e-07
9.82317721e-05
-1.64934706e-07
6.97439717e-07
9.76513124e-05
-1.0413288e-07
6.26187509e-07
-3.02148528e-08
5.59561646e-07
9.70939973e-05
0.000447769614
1.52548736e-05
6.46871572e-05
0.000388238164
3.58422449e-05
7.59349305e-05
0.000335580902
4.06673501e-05
6.21876851e-05
0.000291761125
3.76322548e-05
4.66692171e-05
0.000257078398
3.18661596e-05
3.3305502e-05
0.00023070851
2.56761127e-05
2.30470684e-05
0.00021091393
2.01508325e-05
1.59370682e-05
0.000195903749
1.55977645e-05
1.12668766e-05
0.000184291539
1.19685591e-05
8.25434818e-06
0.000175107091
9.12711604e-06
6.31156863e-06
0.000167693617
6.9246674e-06
5.03178659e-06
0.000161609708
5.22285736e-06
4.15322796e-06
0.000156552946
3.90537918e-06
3.52038825e-06
0.00015230913
2.88013132e-06
3.04355821e-06
0.000148721533
2.07698215e-06
2.67011556e-06
0.000145671984
1.44420944e-06
2.36829639e-06
0.000143068778
9.44523688e-07
2.11819776e-06
0.000140838832
5.51363044e-07
1.90670091e-06
0.000138922507
2.45837131e-07
1.72467068e-06
0.000137269947
1.44235809e-08
1.56547358e-06
0.000135838664
-1.52780046e-07
1.42413228e-06
0.000134591929
-2.63277398e-07
1.29683774e-06
0.000133497476
-3.23034991e-07
1.18071177e-06
0.000132526622
-3.37160756e-07
1.07359727e-06
0.000131653693
-3.10406151e-07
9.73919543e-07
0.000130855675
-2.47504025e-07
8.80587302e-07
0.000130112012
-1.53379528e-07
7.92909489e-07
-3.32506053e-08
7.10513803e-07
0.000129404533
0.000440472409
9.95943223e-06
6.48230317e-05
0.000375873612
2.46437089e-05
7.5797333e-05
0.000324700272
3.07169386e-05
6.11237514e-05
0.00028619674
3.08569284e-05
4.52788575e-05
0.000257839051
2.81091574e-05
3.21146915e-05
0.000237173688
2.41810479e-05
2.21604281e-05
0.000221931292
2.00710625e-05
1.53221667e-05
0.000210342983
1.63032728e-05
1.08828015e-05
0.000201203412
1.30559835e-05
8.05214688e-06
0.000193746753
1.03412364e-05
6.24254006e-06
0.000187503927
8.11018423e-06
5.05731041e-06
0.000182189452
6.29410762e-06
4.24322522e-06
0.000177622345
4.82220257e-06
3.65028457e-06
0.000173678415
3.63020342e-06
3.19385917e-06
0.000170264902
2.66394531e-06
2.8265511e-06
0.00016730765
1.88009303e-06
2.52136883e-06
0.000164744588
1.24527449e-06
2.26231145e-06
0.000162522309
7.3447e-07
2.03917281e-06
0.000160594098
3.29229776e-07
1.84481825e-06
0.00015891863
1.60419618e-08
1.67384939e-06
0.00015745898
-2.15099139e-07
1.52196931e-06
0.000156181895
-3.7185497e-07
1.38566242e-06
0.00015505719
-4.60391229e-07
1.26206157e-06
0.000154057309
-4.86123537e-07
1.14884309e-06
0.000153157034
-4.54301728e-07
1.04417085e-06
0.000152333312
-3.70432548e-07
9.46650166e-07
0.000151565208
-2.40559156e-07
8.55283215e-07
-7.14008861e-08
7.69418116e-07
0.00015083394
0.000437877889
7.06325366e-06
6.50182891e-05
0.000368456331
1.78002499e-05
7.62650172e-05
0.000314728947
2.34043256e-05
6.10399963e-05
0.000276412292
2.47883304e-05
4.43852535e-05
0.000250110985
2.3692808e-05
3.07176566e-05
0.000232366298
2.13251822e-05
2.06005527e-05
0.000220181318
1.84506573e-05
1.38053863e-05
0.000211414828
1.55538024e-05
9.51596083e-06
0.000204717183
1.28768624e-05
6.87676642e-06
0.000199292504
1.05067171e-05
5.25919881e-06
0.000194697661
8.45682989e-06
4.2481981e-06
0.000190698183
6.70885566e-06
3.58473121e-06
0.00018717145
5.23119914e-06
3.11773639e-06
0.000184049203
3.98867082e-06
2.76377983e-06
0.000181287325
2.94773432e-06
2.47808984e-06
0.000178851406
2.07905761e-06
2.23695371e-06
0.000176710553
1.35841148e-06
2.02771574e-06
0.000174835163
7.66601252e-07
1.84325862e-06
0.000173196387
2.88881742e-07
1.67912472e-06
0.000171766185
-8.58599557e-08
1.53210306e-06
0.000170517472
-3.66015147e-07
1.39962854e-06
0.0001694242
-5.58095474e-07
1.27951239e-06
0.000168461416
-6.67461385e-07
1.16985438e-06
0.000167605337
-6.99044895e-07
1.06900033e-06
0.000166833424
-6.57937956e-07
9.75548672e-07
0.000166124497
-5.49860402e-07
8.88354637e-07
0.000165458901
-3.81493643e-07
8.06530594e-07
-1.60659702e-07
7.29437801e-07
0.000164818722
0.000436605882
5.27650291e-06
6.51808683e-05
0.000364323065
1.3434634e-05
7.66484331e-05
0.000308253012
1.82417104e-05
6.1232669e-05
0.00026885172
2.00671159e-05
4.41225061e-05
0.000242607906
1.98812993e-05
3.00553233e-05
0.000225725591
1.85090337e-05
1.96984644e-05
0.000214855877
1.65288363e-05
1.27915356e-05
0.000207588346
1.43407794e-05
8.48055463e-06
0.000202403002
1.21823795e-05
5.87982707e-06
0.00019840764
1.01694739e-05
4.33260572e-06
0.000195111138
8.34898441e-06
3.40434806e-06
0.000192261283
6.73287151e-06
2.82583925e-06
0.000189736173
5.31552539e-06
2.44078402e-06
0.000187478852
4.08318798e-06
2.16280342e-06
0.000185461575
3.01934598e-06
1.9456649e-06
0.000183667657
2.10772628e-06
1.76524827e-06
0.000182083083
1.33383341e-06
1.60915187e-06
0.000180693191
6.85596979e-07
1.47089576e-06
0.000179481743
1.53470914e-07
1.34685875e-06
0.000178431005
-2.69861935e-07
1.23473955e-06
0.000177522095
-5.89962728e-07
1.13285642e-06
0.000176735306
-8.11145451e-07
1.03983889e-06
0.000176050501
-9.37139299e-07
9.54483184e-07
0.000175447461
-9.71715825e-07
8.75710585e-07
0.000174906214
-9.19260243e-07
8.0256955e-07
0.00017440738
-7.85268057e-07
7.34241667e-07
0.000173932559
-5.76722305e-07
6.7004993e-07
-3.02307178e-07
6.09464684e-07
0.000173464742
0.000435883969
4.093292e-06
6.52992422e-05
0.000361910203
1.04695341e-05
7.69388657e-05
0.00030414576
1.45086866e-05
6.14974675e-05
0.000263616154
1.64114909e-05
4.41852316e-05
0.00023688109
1.67264791e-05
2.98898854e-05
0.000220029141
1.5998343e-05
1.936264e-05
0.000209557024
1.46558053e-05
1.23451482e-05
0.000202912295
1.30160318e-05
7.96947709e-06
0.000198467347
1.12881187e-05
5.33920959e-06
0.000195257703
9.59304686e-06
3.78607062e-06
0.00019274634
7.99443566e-06
2.86591154e-06
0.000190652695
6.52246638e-06
2.30405011e-06
0.000188838519
5.18849121e-06
1.94120939e-06
0.000187239129
3.99368851e-06
1.68888855e-06
0.000185825066
2.93421446e-06
1.49919427e-06
0.000184581762
2.00424696e-06
1.34678239e-06
0.00018349945
1.19774922e-06
1.21839578e-06
0.000182568628
5.09426952e-07
1.10699078e-06
0.000181778328
-6.48428559e-08
1.00861365e-06
0.000181115665
-5.28046244e-07
9.20846499e-07
0.000180565879
-8.8217809e-07
8.42000637e-07
0.000180112577
-1.12864146e-06
7.70798111e-07
0.000179738104
-1.26883225e-06
7.06166495e-07
0.000179423929
-1.30471991e-06
6.47178833e-07
0.00017915108
-1.23943717e-06
5.93026468e-07
0.000178900635
-1.07782798e-06
5.43004886e-07
0.00017865429
-8.26884079e-07
4.96507333e-07
-4.96000991e-07
4.53023026e-07
0.000178394961
0.000435447532
3.25489689e-06
6.53908636e-05
0.000360403149
8.3442658e-06
7.71696518e-05
0.000301438706
1.17200845e-05
6.17530457e-05
0.000259974011
1.3528147e-05
4.43480398e-05
0.000232679427
1.40962502e-05
2.99248135e-05
0.000215602314
1.37796371e-05
1.92958196e-05
0.000205159831
1.28878985e-05
1.22103906e-05
0.000198720607
1.16653229e-05
7.78993303e-06
0.000194592587
1.02859126e-05
5.13022629e-06
0.000191765459
8.86282724e-06
3.55734786e-06
0.00018967171
7.46515037e-06
2.62303373e-06
0.000188010371
6.13299914e-06
2.05080562e-06
0.000186629314
4.8885288e-06
1.68101879e-06
0.000185454704
3.74324426e-06
1.42505307e-06
0.000184451562
2.70260714e-06
1.23474876e-06
0.00018360251
1.76891876e-06
1.08437868e-06
0.000182896871
9.43131816e-07
9.6025537e-07
0.000182325441
2.25953844e-07
8.54902989e-07
0.000181878227
-3.81616428e-07
7.63986858e-07
0.0001815435
-8.78083107e-07
6.84763475e-07
0.000181307492
-1.26148379e-06
6.15313567e-07
0.000181154491
-1.5298176e-06
5.54177088e-07
0.000181067046
-1.68154619e-06
5.00159563e-07
0.000181026291
-1.71622061e-06
4.52255037e-07
0.000181012417
-1.63516248e-06
4.09600351e-07
0.000181005266
-1.44212202e-06
3.71444884e-07
0.000180985078
-1.14382155e-06
3.37125587e-07
-7.50287092e-07
3.06053722e-07
0.000180933311
0.000435162443
2.63041059e-06
6.54620437e-05
0.000359404814
6.75349355e-06
7.73484028e-05
0.000299587045
9.57239415e-06
6.19654594e-05
0.000257387714
1.12107598e-05
4.45167201e-05
0.000229582783
1.18797154e-05
3.00214665e-05
0.000212216233
1.18128617e-05
1.93333255e-05
0.000201664151
1.12302291e-05
1.22097517e-05
0.000195248176
1.03162469e-05
7.76505156e-06
0.000191234593
9.2108205e-06
5.0886754e-06
0.000188581679
8.0131228e-06
3.5026176e-06
0.000186700557
6.79025527e-06
2.55601678e-06
0.000185276006
5.58603988e-06
1.97150889e-06
0.000184146164
4.42862553e-06
1.58974434e-06
0.000183230509
3.33619792e-06
1.32270019e-06
0.000182489618
2.32082542e-06
1.12267175e-06
0.000181903349
1.3910086e-06
9.64178759e-07
0.000181459467
5.53397328e-07
8.33615305e-07
0.000181148033
-1.86086503e-07
7.2347408e-07
0.000180958741
-8.21663947e-07
6.29338693e-07
0.000180879658
-1.34732262e-06
5.48322585e-07
0.000180896712
-1.75693527e-06
4.78397282e-07
0.000180993528
-2.04462381e-06
4.17990241e-07
0.000181151483
-2.20531945e-06
3.65819028e-07
0.000181349966
-2.23550718e-06
3.20803743e-07
0.00018156687
-2.13408703e-06
2.82020945e-07
0.000181779313
-1.90322954e-06
2.48664192e-07
0.000181964587
-1.54909713e-06
2.20002204e-07
-1.0823166e-06
1.95356442e-07
0.000182101261
0.000434965848
2.14754184e-06
6.55170218e-05
0.00035871373
5.51948958e-06
7.7486123e-05
0.000298278723
7.87212689e-06
6.21352755e-05
0.000255508503
9.31489536e-06
4.4666086e-05
0.000227265808
9.99375321e-06
3.01286578e-05
0.000209609044
1.00655644e-05
1.94040618e-05
0.000198896093
9.68593209e-06
1.2257248e-05
0.000192421132
8.99234392e-06
7.79886466e-06
0.000188423228
8.09484922e-06
5.11387424e-06
0.00018583839
7.07689114e-06
3.52106912e-06
0.000184061667
5.99945457e-06
2.56752302e-06
0.00018276683
4.90581024e-06
1.97506575e-06
0.000181784516
3.82645702e-06
1.58448153e-06
0.000181029146
2.78333418e-06
1.3082331e-06
0.000180458019
1.79286746e-06
1.09908429e-06
0.000180049019
8.68107503e-07
9.3189989e-07
0.000179788847
2.02718112e-08
7.93297079e-07
0.000179667067
-7.40241497e-07
6.75934021e-07
0.000179673108
-1.40312566e-06
5.75420618e-07
0.000179794753
-1.95788806e-06
4.88920638e-07
0.000180017353
-2.3939507e-06
4.14415338e-07
0.000180323424
-2.70103135e-06
3.50336585e-07
0.000180692529
-2.86984266e-06
2.95418239e-07
0.000181101458
-2.8930337e-06
2.48598071e-07
0.000181524727
-2.76630267e-06
2.08947002e-07
0.000181935438
-2.48957652e-06
1.75637041e-07
0.000182306491
-2.06807633e-06
1.47925908e-07
-1.51305382e-06
1.25125052e-07
0.000182612104
0.000434825029
1.76289305e-06
6.55596206e-05
0.000358217501
4.53417981e-06
7.75928398e-05
0.000297325865
6.49419569e-06
6.22695687e-05
0.000254110749
7.73931336e-06
4.4790699e-05
0.00022550144
8.37593841e-06
3.02271239e-05
0.000207576232
8.51207507e-06
1.94786982e-05
0.000196687671
8.25801095e-06
1.2316482e-05
0.000190115093
7.7154895e-06
7.8494321e-06
0.000186080594
6.96981149e-06
5.15953683e-06
0.000183504951
6.08932054e-06
3.56321307e-06
0.000181771342
5.12710562e-06
2.60595623e-06
0.000180544914
4.12332794e-06
2.00890966e-06
0.000179650231
3.10829792e-06
1.61284144e-06
0.000178997599
2.10547921e-06
1.33048672e-06
0.000178541725
1.13382865e-06
1.11491192e-06
0.000178259067
2.09544901e-07
9.41220218e-07
0.000178135735
-6.52627256e-07
7.96230874e-07
0.000178161185
-1.43837925e-06
6.72686617e-07
0.000178324954
-2.13317165e-06
5.66276579e-07
0.000178614814
-2.72199035e-06
4.74242497e-07
0.000179015663
-3.18942242e-06
3.94622913e-07
0.00017950884
-3.52012237e-06
3.25914135e-07
0.000180071779
-3.69967161e-06
2.66890734e-07
0.000180678021
-3.71581147e-06
2.16536258e-07
0.000181297697
-3.55996913e-06
1.73990469e-07
0.000181898548
-3.22892535e-06
1.3849817e-07
0.000182447498
-2.72639418e-06
1.09368434e-07
-2.06420271e-06
8.59342323e-08
0.000182912712
0.000434720785
1.44923975e-06
6.55928696e-05
0.000357849416
3.72935349e-06
7.76761971e-05
0.000296611924
5.3560655e-06
6.23756229e-05
0.000253046623
6.41249664e-06
4.48921196e-05
0.000224132386
6.9786852e-06
3.03114907e-05
0.000205967009
7.13062574e-06
1.95468268e-05
0.000194904296
6.94690449e-06
1.23738199e-05
0.000188216607
6.50249821e-06
7.90067938e-06
0.000184116148
5.86279329e-06
5.20747702e-06
0.000181513874
5.08265657e-06
3.60893697e-06
0.000179784698
4.20688756e-06
2.64939378e-06
0.000178587371
3.27118784e-06
2.04946572e-06
0.000177741773
2.30403139e-06
1.64986472e-06
0.00017715499
1.32878626e-06
1.36347537e-06
0.000176779774
3.65503003e-07
1.14354051e-06
0.000176591663
-5.67678841e-07
9.65334567e-07
0.000176576623
-1.4533382e-06
8.15750782e-07
0.000176724507
-2.2738202e-06
6.87556788e-07
0.000177025426
-3.01062055e-06
5.76529685e-07
0.000177467554
-3.64406743e-06
4.79948425e-07
0.000178035654
-4.15340591e-06
3.95884102e-07
0.00017871
-4.51734972e-06
3.22881093e-07
0.000179465691
-4.71514922e-06
2.5978733e-07
0.000180272402
-4.72819621e-06
2.0567365e-07
0.000181094773
-4.54211092e-06
1.5977176e-07
0.000181893563
-4.14913695e-06
1.21421321e-07
0.00018262768
-3.55052994e-06
9.00188062e-08
-2.75847954e-06
6.4964469e-08
0.000183256993
0.00043464128
1.18886655e-06
6.56190941e-05
0.000357568208
3.06038616e-06
7.77420414e-05
0.000296062386
4.40196206e-06
6.2459927e-05
0.000252217269
5.2833847e-06
4.49742304e-05
0.000223048514
5.7655084e-06
3.03819322e-05
0.000204670892
5.90248553e-06
1.96057625e-05
0.000193442374
5.75055199e-06
1.24248703e-05
0.000186632961
5.3647589e-06
7.94715223e-06
0.000182449619
4.79469741e-06
5.25143714e-06
0.000179797408
4.08362546e-06
3.65124113e-06
0.000178045897
3.26836375e-06
2.69003515e-06
0.000176849484
2.37955891e-06
2.08804147e-06
0.000176024773
1.44282388e-06
1.685918e-06
0.000175476652
4.8026802e-07
1.39663854e-06
0.000175156688
-4.88122807e-07
1.17358944e-06
0.000175040154
-1.44325894e-06
9.92113291e-07
0.000175113559
-2.36583842e-06
8.39095651e-07
0.000175367808
-3.23544152e-06
7.0737211e-07
0.000175794271
-4.02980849e-06
5.92724841e-07
0.000176382207
-4.72444095e-06
4.92437227e-07
0.000177116825
-5.29262974e-06
4.04605431e-07
0.000177977702
-5.70604221e-06
3.27816266e-07
0.000178937571
-5.93599881e-06
2.6098056e-07
0.00017996165
-5.95553286e-06
2.03257716e-07
0.000181007776
-5.74222599e-06
1.53989244e-07
0.00018202765
-5.28165034e-06
1.12640218e-07
0.000182969391
-4.57100867e-06
7.87368988e-08
-3.62229155e-06
5.17940155e-08
0.000183781409
0.000434578937
9.69867921e-07
6.5640063e-05
0.000357347343
2.49718566e-06
7.77947959e-05
0.000295628193
3.59338138e-06
6.25277327e-05
0.000251555353
4.31518801e-06
4.5041037e-05
0.000222171996
4.70849713e-06
3.04403691e-05
0.000203606894
4.81185348e-06
1.96557346e-05
0.000192223095
4.66545794e-06
1.24688926e-05
0.000185290761
4.30947624e-06
7.98761619e-06
0.000181014549
3.78100866e-06
5.28990072e-06
0.000178296327
3.1134669e-06
3.68837955e-06
0.000176502534
2.33629437e-06
2.72586185e-06
0.000175284934
1.47489821e-06
2.12226112e-06
0.00017445818
5.51391953e-07
1.71818535e-06
0.000173926003
-4.14258938e-07
1.42670337e-06
0.000173639683
-1.4030735e-06
1.20127022e-06
0.000173575132
-2.39591445e-06
1.01720681e-06
0.000173720264
-3.37243222e-06
8.6146169e-07
0.000174067985
-4.31002896e-06
7.26865889e-07
0.00017461197
-5.18297502e-06
6.0918152e-07
0.000175343652
-5.96180429e-06
5.05681526e-07
0.000176249713
-6.61315987e-06
4.14468831e-07
0.00017730982
-7.10030788e-06
3.34158875e-07
0.000178494658
-7.38456018e-06
2.6372333e-07
0.000179764538
-7.42782813e-06
2.024161e-07
0.000181069013
-7.19641591e-06
1.49714477e-07
0.000182348048
-6.66593867e-06
1.05253924e-07
0.000183535167
-5.82687585e-06
6.87482976e-08
-4.68977931e-06
3.98869213e-08
0.000184562767
0.000434528734
7.84028961e-07
6.56571062e-05
0.00035716921
2.01894507e-06
7.78377661e-05
0.000295276256
2.90323334e-06
6.25831037e-05
0.000251014284
3.48115764e-06
4.50960033e-05
0.000221447346
3.78636868e-06
3.04890668e-05
0.000202715474
3.84574404e-06
1.96979822e-05
0.000191186708
3.68769827e-06
1.25065256e-05
0.000184132611
3.34114519e-06
8.02242725e-06
0.000179757267
2.83325428e-06
5.32309845e-06
0.000176961123
2.18910258e-06
3.72050774e-06
0.000175109077
1.43139979e-06
2.7569402e-06
0.000173851598
5.80322551e-07
2.15205429e-06
0.0001730025
-3.4596057e-07
1.74645073e-06
0.000172465344
-1.33034741e-06
1.45324411e-06
0.000172192131
-2.35571068e-06
1.22584942e-06
0.000172160381
-3.40381778e-06
1.03965388e-06
0.000172360501
-4.45416611e-06
8.81613811e-07
0.000172788682
-5.48273174e-06
7.44521664e-07
0.000173442376
-6.46077805e-06
6.24108195e-07
0.000174316822
-7.35386951e-06
5.17619553e-07
0.000175401844
-8.12132588e-06
4.23144205e-07
0.000176678673
-8.71644946e-06
3.39312347e-07
0.000178116875
-9.08791951e-06
2.65157051e-07
0.000179671786
-9.1827849e-06
2.00046386e-07
0.000181283135
-8.95139815e-06
1.43633385e-07
0.000182875761
-8.3543555e-06
9.57907223e-08
0.000184363319
-7.37094517e-06
5.65114244e-08
-6.0077634e-06
2.57606667e-08
0.000185655542
0.000434487258
6.2555771e-07
6.56712144e-05
0.000357021834
1.6109665e-06
7.78734044e-05
0.000294983817
2.31213111e-06
6.26291201e-05
0.000250561379
2.76167493e-06
4.51419216e-05
0.000220834696
2.98294869e-06
3.05301035e-05
0.000201952745
2.99375943e-06
1.97339365e-05
0.000190288026
2.81361335e-06
1.25388033e-05
0.000183113976
2.46276852e-06
8.05242701e-06
0.000178635036
1.96040208e-06
5.35179143e-06
0.000175751319
1.32447224e-06
3.74834718e-06
0.000173827232
5.71539413e-07
2.78394717e-06
0.000172512885
-2.83407086e-07
2.17807671e-06
0.000171622132
-1.22651967e-06
1.77131196e-06
0.000171059296
-2.24419197e-06
1.47667964e-06
0.000170777983
-3.32205634e-06
1.24765841e-06
0.000170758336
-4.44384064e-06
1.05967026e-06
0.000170994545
-5.5899989e-06
8.99623383e-07
0.000171487674
-6.73613221e-06
7.60271607e-07
0.000172240913
-7.8513055e-06
6.37288178e-07
0.000173255625
-8.89644329e-06
5.27861792e-07
0.000174527331
-9.82307979e-06
4.30048214e-07
0.000176041328
-1.05729277e-05
3.42480871e-07
0.000177768028
-1.10788713e-05
2.64252507e-07
0.00017965852
-1.12681464e-05
1.94869643e-07
0.000181641373
-1.10684748e-05
1.34222595e-07
0.000183622139
-1.04176497e-05
8.25287881e-08
0.000185487269
-9.27629057e-06
4.0215086e-08
-7.64211931e-06
7.69649534e-09
0.000187113927
0.000434452149
4.90289784e-07
6.56831197e-05
0.000356896931
1.26266628e-06
7.79035199e-05
0.000294734999
1.80598197e-06
6.26680826e-05
0.000250173497
2.14222383e-06
4.51809539e-05
0.000220305278
2.2859675e-06
3.05652002e-05
0.000201286382
2.24775648e-06
1.97648992e-05
0.000189493063
2.04017697e-06
1.2566756e-05
0.000182200639
1.67668803e-06
8.07850443e-06
0.00017761432
1.16991872e-06
5.37680254e-06
0.000174634447
5.31664481e-07
3.77267996e-06
0.000172625517
-2.27205579e-07
2.80767447e-06
0.000171237871
-1.09688335e-06
2.20112281e-06
0.000170286089
-2.06815095e-06
1.79341224e-06
0.000169675894
-3.13160782e-06
1.4976109e-06
0.000169363237
-4.27665975e-06
1.26726014e-06
0.000169331904
-5.49024409e-06
1.07773663e-06
0.000169581232
-6.7552377e-06
9.15911139e-07
0.000170119026
-8.04838512e-06
7.74458829e-07
0.000170956698
-9.33794102e-06
6.48963947e-07
0.000172104886
-1.05811648e-05
5.36533194e-07
0.000173568544
-1.17218978e-05
4.35159581e-07
0.000175341052
-1.26888913e-05
3.43456197e-07
0.000177397316
-1.33957073e-05
2.60571275e-07
0.000179686439
-1.37434522e-05
1.86183114e-07
0.000182125282
-1.36278312e-05
1.205129e-07
0.000184595257
-1.29519237e-05
6.42977663e-08
0.000186945449
-1.16451454e-05
1.86631097e-08
-9.68692429e-06
-1.52419573e-08
0.000189005495
0.000434421761
3.7517129e-07
6.56933586e-05
0.00035678872
9.6627261e-07
7.79294355e-05
0.00029451865
1.3743662e-06
6.27016866e-05
0.000249834208
1.61193745e-06
4.52147292e-05
0.000219838381
1.68609046e-06
3.05957051e-05
0.000200692747
1.60145002e-06
1.97919408e-05
0.000188776558
1.36510075e-06
1.25912651e-05
0.000181366767
9.85046717e-07
8.10143267e-06
0.000176669383
4.68461162e-07
5.39884109e-06
0.00017358513
-1.78307129e-07
3.79422506e-06
0.000171478805
-9.4975537e-07
2.82887481e-06
0.000170001334
-1.84119274e-06
2.22177917e-06
0.0001689683
-2.84841636e-06
1.81329961e-06
0.000168287133
-3.96702786e-06
1.51658718e-06
0.000167916694
-5.19136367e-06
1.28514281e-06
0.000167845285
-6.51314434e-06
1.09430966e-06
0.000168078732
-7.91956004e-06
9.30875517e-07
0.000168633592
-9.39065751e-06
7.87411691e-07
0.000169532487
-1.08962182e-05
6.59382594e-07
0.000170799447
-1.23918936e-05
5.43769024e-07
0.000172454126
-1.38150311e-05
4.38454348e-07
0.000174504166
-1.50809261e-05
3.41994191e-07
0.000176935313
-1.60804386e-05
2.53583336e-07
0.000179699708
-1.66809669e-05
1.73120038e-07
0.000182703943
-1.67333704e-05
1.01303152e-07
0.000185800307
-1.60879639e-05
3.96760786e-08
0.000188786622
-1.46219554e-05
-9.50543158e-09
-1.22784916e-05
-4.38257468e-08
0.000191422014
0.000434394945
2.77908491e-07
6.57023186e-05
0.000356693172
7.15939988e-07
7.79521065e-05
0.000294326973
1.00940551e-06
6.27311608e-05
0.000249531943
1.16252429e-06
4.5244444e-05
0.000219419284
1.17611836e-06
3.06226317e-05
0.000200154873
1.04997362e-06
1.98158877e-05
0.000188120216
7.86735809e-07
1.26130222e-05
0.000180593479
3.89970744e-07
8.12181361e-06
0.000175781232
-1.37800957e-07
5.41850844e-06
0.000172584426
-7.9514293e-07
3.81364174e-06
0.000170368166
-1.58150892e-06
2.84801312e-06
0.000168783868
-2.49735595e-06
2.24046106e-06
0.000167647984
-3.54395515e-06
1.83142312e-06
0.000166869683
-4.72273063e-06
1.53400331e-06
0.000166410924
-6.03427459e-06
1.3016709e-06
0.000166265037
-7.47695231e-06
1.10969479e-06
0.000166445416
-9.04469981e-06
9.44761143e-07
0.000166979442
-1.07239855e-05
7.99301969e-07
0.000167904285
-1.24896711e-05
6.68609358e-07
0.000169262417
-1.42994989e-05
5.49473788e-07
0.000171095348
-1.60875625e-05
4.39599615e-07
0.000173434165
-1.77571692e-05
3.3742567e-07
0.000176285945
-1.91743946e-05
2.42175672e-07
0.000179615774
-2.01648421e-05
1.54045034e-07
0.00018332576
-2.0517821e-05
7.44641006e-08
0.000187235555
-2.00040303e-05
6.2714913e-09
0.000191073338
-1.84133688e-05
-4.63707115e-08
-1.5618278e-05
-7.87507446e-08
0.000194491875
0.000434370916
1.96720392e-07
6.5710273e-05
0.000356607527
5.0712185e-07
7.79722072e-05
0.000294154619
7.04941398e-07
6.27573732e-05
0.000249258749
7.87445468e-07
4.52709491e-05
0.000219037849
7.50309215e-07
3.06467097e-05
0.000199661065
5.89416776e-07
1.98373418e-05
0.000187511427
3.03848036e-07
1.26325262e-05
0.000179867797
-1.06532254e-07
8.1401333e-06
0.000174936876
-6.43248358e-07
5.43636876e-06
0.000171619552
-1.30909097e-06
3.83127152e-06
0.000169280864
-2.10818443e-06
2.8653634e-06
0.000167572206
-3.04621251e-06
2.2575144e-06
0.000166310449
-4.13027614e-06
1.848078e-06
0.00016540605
-5.36844874e-06
1.5501171e-06
0.00016482372
-6.76898438e-06
1.31704035e-06
0.000164561736
-8.3389968e-06
1.12402799e-06
0.000164641643
-1.00822342e-05
9.57627492e-07
0.000165103285
-1.19957028e-05
8.10075529e-07
0.000166001731
-1.40645324e-05
6.76415252e-07
0.000167403769
-1.62546856e-05
5.53148686e-07
0.000169381943
-1.85034265e-05
4.3768904e-07
0.000172003857
-2.07073382e-05
3.28254755e-07
0.000175314569
-2.27091638e-05
2.24055924e-07
0.000179310284
-2.42862582e-05
1.25700616e-07
0.000183903206
-2.51465286e-05
3.5785109e-08
0.000188882751
-2.49428735e-05
-4.0702608e-08
0.000193884928
-2.33196227e-05
-9.59243463e-08
-2.0012258e-05
-1.20600661e-07
0.000198399508
0.000434349157
1.30156666e-07
6.57174076e-05
0.000356529974
3.36108092e-07
7.79901966e-05
0.000293998088
4.55916045e-07
6.27809117e-05
0.000249009452
4.81262179e-07
4.52948204e-05
0.00021868754
4.03787899e-07
3.06684344e-05
0.000199203872
2.16380973e-07
1.98567048e-05
0.000186942332
-8.47715544e-08
1.26501602e-05
0.000179181916
-5.02979858e-07
8.15686353e-06
0.000174128934
-1.04292392e-06
5.45265766e-06
0.000170683708
-1.71112109e-06
3.84725573e-06
0.000168210468
-2.51612506e-06
2.88118073e-06
0.00016635982
-3.46871323e-06
2.27314856e-06
0.000164948148
-4.5820377e-06
1.86343309e-06
0.000163886168
-5.87150841e-06
1.56504004e-06
0.000163140248
-7.35436865e-06
1.33130437e-06
0.000162712701
-9.04873216e-06
1.13728271e-06
0.0001626328
-1.0971662e-05
9.69329103e-07
0.000162953457
-1.31357624e-05
8.19402485e-07
0.000163750291
-1.55435429e-05
6.8217625e-07
0.000165120485
-1.81785817e-05
5.53701281e-07
0.000167178607
-2.09924524e-05
4.30903583e-07
0.000170046334
-2.38866552e-05
3.11588578e-07
0.000173831986
-2.66896695e-05
1.94853377e-07
0.000178594352
-2.91304928e-05
8.18679712e-08
0.000184287239
-3.08164292e-05
-2.29871862e-08
0.000190687593
-3.1232101e-05
-1.11127751e-07
0.000197317835
-2.97822611e-05
-1.67605195e-07
-2.59389971e-05
-1.74107852e-07
0.000203418681
0.000434329358
7.69582311e-08
6.57238407e-05
0.000356459427
1.99671456e-07
7.8006368e-05
0.000293855306
2.57891802e-07
6.28021456e-05
0.000248781049
2.39105157e-07
4.5316415e-05
0.000218364672
1.3206142e-07
3.06881047e-05
0.000198779324
-7.25372294e-08
1.98742664e-05
0.000186409181
-3.80929152e-07
1.26663013e-05
0.000178532695
-7.98650692e-07
8.17215718e-06
0.000173355286
-1.33291014e-06
5.46739531e-06
0.000169775922
-1.99352593e-06
3.86176848e-06
0.000167157135
-2.79294206e-06
2.89560464e-06
0.000165147653
-3.74669575e-06
2.28746426e-06
0.000163562001
-4.87392711e-06
1.87754133e-06
0.000162309456
-6.19773558e-06
1.57877281e-06
0.000161356054
-7.74535697e-06
1.34438997e-06
0.00016070597
-9.5479241e-06
1.14927633e-06
0.000160394144
-1.1639347e-05
9.79510453e-07
0.000160485365
-1.40536244e-05
8.2664079e-07
0.000161076593
-1.68195391e-05
6.84768335e-07
0.000162300036
-1.99512301e-05
5.49203963e-07
0.000164323797
-2.34322267e-05
4.16012559e-07
0.000167345912
-2.71909643e-05
2.8219301e-07
0.000171574293
-3.10645451e-05
1.46494355e-07
0.000177182249
-3.47493813e-05
1.09316454e-08
0.000184228221
-3.77456227e-05
-1.16779923e-07
0.000192529132
-3.93114048e-05
-2.21607467e-07
0.00020148933
-3.84674576e-05
-2.75003699e-07
-3.41817958e-05
-2.45952124e-07
0.000209978079
0.000434311376
3.59408519e-08
6.57296414e-05
0.000356395366
9.47935584e-08
7.80208885e-05
0.000293725313
1.06669699e-07
6.2821275e-05
0.000248572224
5.62842401e-08
4.53359107e-05
0.000218067882
-6.95129677e-08
3.07059178e-05
0.00019838645
-2.8140506e-07
1.98903008e-05
0.000185911739
-5.87240722e-07
1.26810231e-05
0.000177921184
-9.94031057e-07
8.18593562e-06
0.000172618668
-1.51107469e-06
5.48068033e-06
0.000168900952
-2.15070293e-06
3.87489309e-06
0.000166127851
-2.92852547e-06
2.90868461e-06
0.000163944862
-3.86418243e-06
2.30047586e-06
0.000162162842
-4.98228226e-06
1.89037488e-06
0.000160687251
-6.31337325e-06
1.5912284e-06
0.000159480744
-7.8949727e-06
1.35612356e-06
0.000158545595
-9.77247385e-06
1.15969824e-06
0.000157918129
-1.19995087e-05
9.87628098e-07
0.000157670717
-1.46370488e-05
8.30835475e-07
0.000157918676
-1.77499988e-05
6.82500224e-07
0.00015882996
-2.13991729e-05
5.36657774e-07
0.000160635111
-2.56251293e-05
3.87751459e-07
0.000163632227
-3.04191025e-05
2.31021159e-07
0.000168176598
-3.56728471e-05
6.39297075e-08
0.000174638799
-4.11009106e-05
-1.10671633e-07
0.000183303537
-4.6131582e-05
-2.78779755e-07
0.000194164795
-4.97614876e-05
-4.11176956e-07
0.000206578457
-5.04363272e-05
-4.44794282e-07
-4.61246775e-05
-3.36308809e-07
0.000218857645
0.000434295234