/*--------------------------------*- C++ -*----------------------------------*\
| =========                 |                                                 |
| \\      /  F ield         | foam-extend: Open Source CFD                    |
|  \\    /   O peration     | Version:     4.1                                |
|   \\  /    A nd           | Web:         http://www.foam-extend.org         |
|    \\/     M anipulation  |                                                 |
\*---------------------------------------------------------------------------*/
FoamFile
{
    version     2.0;
    format      ascii;
    class       pointVectorField;
    location    "0.2";
    object      pointMotionU;
}
// * * * * * * * * * * * * * * * * * * * * * * * * * * * * * * * * * * * * * //

dimensions      [0 1 -1 0 0 0 0];

internalField   nonuniform List<vector> 
40832
(
(0 0 0)
(0 0 0)
(0 0 0)
(0 0 0)
(0 0 0)
(0 0 0)
(0 0 0)
(0 0 0)
(0 0 0)
(0 0 0)
(0 0 0)
(0 0 0)
(0 0 0)
(0 0 0)
(0 0 0)
(0 0 0)
(0 0 0)
(0 0 0)
(0 0 0)
(0 0 0)
(0 0 0)
(0 0 0)
(0 0 0)
(0 0 0)
(0 0 0)
(0 0 0)
(0 0 0)
(0 0 0)
(0 0 0)
(0 0 0)
(0 0 0)
(0 0 0)
(0 0 0)
(0 0 0)
(0 0 0)
(0 0 0)
(0 0 0)
(0 0 0)
(0 0 0)
(0 0 0)
(0 0 0)
(0 0 0)
(0 0 0)
(0 0 0)
(0 0 0)
(0 0 0)
(0 0 0)
(0 0 0)
(0 0 0)
(0 0 0)
(0 0 0)
(0 0 0)
(0 0 0)
(0 0 0)
(0 0 0)
(0 0 0)
(0 0 0)
(0 0 0)
(0 0 0)
(0 0 0)
(0 0 0)
(0 0 0)
(0 0 0)
(0 0 0)
(0 0 0)
(0 0 0)
(0 0 0)
(0 0 0)
(0 0 0)
(0 0 0)
(0 0 0)
(0 0 0)
(0 0 0)
(0 0 0)
(0 0 0)
(0 0 0)
(0 0 0)
(0 0 0)
(0 0 0)
(0 0 0)
(0 0 0)
(0 0 0)
(0 0 0)
(0 0 0)
(0 0 0)
(0 0 0)
(0 0 0)
(0 0 0)
(0 0 0)
(0 0 0)
(0 0 0)
(0 0 0)
(0 0 0)
(0 0 0)
(0 0 0)
(0 0 0)
(0 0 0)
(0 0 0)
(0 0 0)
(0 0 0)
(0 0 0)
(0 0 0)
(0 0 0)
(0 0 0)
(0 0 0)
(0 0 0)
(0 0 0)
(0 0 0)
(0 0 0)
(0 0 0)
(0 0 0)
(0 0 0)
(0 0 0)
(0 0 0)
(0 0 0)
(0 0 0)
(0 0 0)
(0 0 0)
(0 0 0)
(0 0 0)
(0 0 0)
(0 0 0)
(0 0 0)
(0 0 0)
(0 0 0)
(0 0 0)
(0 0 0)
(0 0 0)
(0 0 0)
(0 0 0)
(0 0 0)
(0 0 0)
(0 0 0)
(0 0 0)
(0 0 0)
(0 0 0)
(0 0 0)
(0 0 0)
(0 0 0)
(0 0 0)
(0 0 0)
(0 0 0)
(0 0 0)
(0 0 0)
(0 0 0)
(0 0 0)
(0 0 0)
(0 0 0)
(0 0 0)
(0 0 0)
(0 0 0)
(0 0 0)
(0 0 0)
(0 0 0)
(0 0 0)
(0 0 0)
(0 0 0)
(0 0 0)
(0 0 0)
(0 0 0)
(0 0 0)
(0 0 0)
(0 0 0)
(0 0 0)
(0 0 0)
(0 0 0)
(0 0 0)
(0 0 0)
(0 0 0)
(0 0 0)
(0 0 0)
(0 0 0)
(0 0 0)
(0 0 0)
(0 0 0)
(0 0 0)
(0 0 0)
(0 0 0)
(0 0 0)
(0 0 0)
(0 0 0)
(0 0 0)
(0 0 0)
(0 0 0)
(0 0 0)
(0 0 0)
(0 0 0)
(0 0 0)
(0 0 0)
(0 0 0)
(0 0 0)
(0 0 0)
(0 0 0)
(0 0 0)
(0 0 0)
(0 0 0)
(0 0 0)
(0 0 0)
(0 0 0)
(0 0 0)
(0 0 0)
(0 0 0)
(0 0 0)
(0 0 0)
(0 0 0)
(0 0 0)
(0 0 0)
(0 0 0)
(0 0 0)
(0 0 0)
(0 0 0)
(0 0 0)
(0 0 0)
(0 0 0)
(0 0 0)
(0 0 0)
(0 0 0)
(0 0 0)
(0 0 0)
(0 0 0)
(0 0 0)
(0 0 0)
(0 0 0)
(0 0 0)
(0 0 0)
(0 0 0)
(0 0 0)
(0 0 0)
(0 0 0)
(0 0 0)
(0 0 0)
(0 0 0)
(0 0 0)
(0 0 0)
(0 0 0)
(0 0 0)
(0 0 0)
(0 0 0)
(0 0 0)
(0 0 0)
(0 0 0)
(0 0 0)
(0 0 0)
(0 0 0)
(0 0 0)
(0 0 0)
(0 0 0)
(0 0 0)
(0 0 0)
(0 0 0)
(0 0 0)
(0 0 0)
(0 0 0)
(0 0 0)
(0 0 0)
(0 0 0)
(0 0 0)
(0 0 0)
(0 0 0)
(0 0 0)
(0 0 0)
(0 0 0)
(0 0 0)
(0 0 0)
(0 0 0)
(0 0 0)
(0 0 0)
(0 0 0)
(0 0 0)
(0 0 0)
(0 0 0)
(0 0 0)
(0 0 0)
(0 0 0)
(0 0 0)
(0 0 0)
(0 0 0)
(0 0 0)
(0 0 0)
(0 0 0)
(0 0 0)
(0 0 0)
(0 0 0)
(0 0 0)
(0 0 0)
(0 0 0)
(0 0 0)
(0 0 0)
(0 0 0)
(0 0 0)
(0 0 0)
(0 0 0)
(0 0 0)
(0 0 0)
(0 0 0)
(0 0 0)
(0 0 0)
(0 0 0)
(0 0 0)
(0 0 0)
(0 0 0)
(0 0 0)
(0 0 0)
(0 0 0)
(0 0 0)
(0 0 0)
(0 0 0)
(0 0 0)
(0 0 0)
(0 0 0)
(0 0 0)
(0 0 0)
(0 0 0)
(0 0 0)
(0 0 0)
(0 0 0)
(0 0 0)
(0 0 0)
(0 0 0)
(0 0 0)
(0 0 0)
(0 0 0)
(0 0 0)
(0 0 0)
(0 0 0)
(0 0 0)
(0 0 0)
(0 0 0)
(0 0 0)
(0 0 0)
(0 0 0)
(0 0 0)
(0 0 0)
(0 0 0)
(0 0 0)
(0 0 0)
(0 0 0)
(0 0 0)
(0 0 0)
(0 0 0)
(0 0 0)
(0 0 0)
(0 0 0)
(0 0 0)
(0 0 0)
(0 0 0)
(0 0 0)
(0 0 0)
(0 0 0)
(0 0 0)
(0 0 0)
(0 0 0)
(0 0 0)
(0 0 0)
(0 0 0)
(0 0 0)
(0 0 0)
(0 0 0)
(0 0 0)
(0 0 0)
(0 0 0)
(0 0 0)
(0 0 0)
(0 0 0)
(0 0 0)
(0 0 0)
(0 0 0)
(0 0 0)
(0 0 0)
(0 0 0)
(0 0 0)
(0 0 0)
(0 0 0)
(0 0 0)
(0 0 0)
(0 0 0)
(0 0 0)
(0 0 0)
(0 0 0)
(0 0 0)
(0 0 0)
(0 0 0)
(0 0 0)
(0 0 0)
(0 0 0)
(0 0 0)
(0 0 0)
(0 0 0)
(0 0 0)
(0 0 0)
(0 0 0)
(0 0 0)
(0 0 0)
(0 0 0)
(0 0 0)
(0 0 0)
(0 0 0)
(0 0 0)
(0 0 0)
(0 0 0)
(0 0 0)
(0 0 0)
(0 0 0)
(0 0 0)
(0 0 0)
(0 0 0)
(0 0 0)
(0 0 0)
(0 0 0)
(0 0 0)
(0 0 0)
(0 0 0)
(0 0 0)
(0 0 0)
(0 0 0)
(0 0 0)
(0 0 0)
(0 0 0)
(0 0 0)
(0 0 0)
(0 0 0)
(0 0 0)
(0 0 0)
(0 0 0)
(0 0 0)
(0 0 0)
(0 0 0)
(0 0 0)
(0 0 0)
(0 0 0)
(0 0 0)
(0 0 0)
(0 0 0)
(0 0 0)
(0 0 0)
(0 0 0)
(0 0 0)
(0 0 0)
(0 0 0)
(0 0 0)
(0 0 0)
(0 0 0)
(0 0 0)
(0 0 0)
(0 0 0)
(0 0 0)
(0 0 0)
(0 0 0)
(0 0 0)
(0 0 0)
(0 0 0)
(0 0 0)
(0 0 0)
(0 0 0)
(0 0 0)
(0 0 0)
(0 0 0)
(0 0 0)
(0 0 0)
(0 0 0)
(0 0 0)
(0 0 0)
(0 0 0)
(0 0 0)
(0 0 0)
(0 0 0)
(0 0 0)
(0 0 0)
(0 0 0)
(0 0 0)
(0 0 0)
(0 0 0)
(0 0 0)
(0 0 0)
(0 0 0)
(0 0 0)
(0 0 0)
(0 0 0)
(0 0 0)
(0 0 0)
(0 0 0)
(0 0 0)
(0 0 0)
(0 0 0)
(0 0 0)
(0 0 0)
(0 0 0)
(0 0 0)
(0 0 0)
(0 0 0)
(0 0 0)
(0 0 0)
(0 0 0)
(0 0 0)
(0 0 0)
(0 0 0)
(0 0 0)
(0 0 0)
(0 0 0)
(0 0 0)
(0 0 0)
(0 0 0)
(0 0 0)
(0 0 0)
(0 0 0)
(0 0 0)
(0 0 0)
(0 0 0)
(0 0 0)
(0 0 0)
(0 0 0)
(0 0 0)
(0 0 0)
(0 0 0)
(0 0 0)
(0 0 0)
(0 0 0)
(0 0 0)
(0 0 0)
(0 0 0)
(0 0 0)
(0 0 0)
(0 0 0)
(0 0 0)
(0 0 0)
(0 0 0)
(0 0 0)
(0 0 0)
(0 0 0)
(0 0 0)
(0 0 0)
(0 0 0)
(0 0 0)
(0 0 0)
(0 0 0)
(0 0 0)
(0 0 0)
(0 0 0)
(0 0 0)
(0 0 0)
(0 0 0)
(0 0 0)
(0 0 0)
(0 0 0)
(0 0 0)
(0 0 0)
(0 0 0)
(0 0 0)
(0 0 0)
(0 0 0)
(0 0 0)
(0 0 0)
(0 0 0)
(0 0 0)
(0 0 0)
(0 0 0)
(0 0 0)
(0 0 0)
(0 0 0)
(0 0 0)
(0 0 0)
(0 0 0)
(0 0 0)
(0 0 0)
(0 0 0)
(0 0 0)
(0 0 0)
(0 0 0)
(0 0 0)
(0 0 0)
(0 0 0)
(0 0 0)
(0 0 0)
(0 0 0)
(0 0 0)
(0 0 0)
(0 0 0)
(0 0 0)
(0 0 0)
(0 0 0)
(0 0 0)
(0 0 0)
(0 0 0)
(0 0 0)
(0 0 0)
(0 0 0)
(0 0 0)
(0 0 0)
(0 0 0)
(0 0 0)
(0 0 0)
(0 0 0)
(0 0 0)
(0 0 0)
(0 0 0)
(0 0 0)
(0 0 0)
(0 0 0)
(0 0 0)
(0 0 0)
(0 0 0)
(0 0 0)
(0 0 0)
(0 0 0)
(0 0 0)
(0 0 0)
(0 0 0)
(0 0 0)
(0 0 0)
(0 0 0)
(0 0 0)
(0 0 0)
(0 0 0)
(0 0 0)
(0 0 0)
(0 0 0)
(0 0 0)
(0 0 0)
(0 0 0)
(0 0 0)
(0 0 0)
(0 0 0)
(0 0 0)
(0 0 0)
(0 0 0)
(0 0 0)
(0 0 0)
(0 0 0)
(0 0 0)
(0 0 0)
(0 0 0)
(0 0 0)
(0 0 0)
(0 0 0)
(0 0 0)
(0 0 0)
(0 0 0)
(0 0 0)
(0 0 0)
(0 0 0)
(0 0 0)
(0 0 0)
(0 0 0)
(0 0 0)
(0 0 0)
(0 0 0)
(0 0 0)
(0 0 0)
(0 0 0)
(0 0 0)
(0 0 0)
(0 0 0)
(0 0 0)
(0 0 0)
(0 0 0)
(0 0 0)
(0 0 0)
(0 0 0)
(0 0 0)
(0 0 0)
(0 0 0)
(0 0 0)
(0 0 0)
(0 0 0)
(0 0 0)
(0 0 0)
(0 0 0)
(0 0 0)
(0 0 0)
(0 0 0)
(0 0 0)
(0 0 0)
(0 0 0)
(0 0 0)
(0 0 0)
(0 0 0)
(0 0 0)
(0 0 0)
(0 0 0)
(0 0 0)
(0 0 0)
(0 0 0)
(0 0 0)
(0 0 0)
(0 0 0)
(0 0 0)
(0 0 0)
(0 0 0)
(0 0 0)
(0 0 0)
(0 0 0)
(0 0 0)
(0 0 0)
(0 0 0)
(0 0 0)
(0 0 0)
(0 0 0)
(0 0 0)
(0 0 0)
(0 0 0)
(0 0 0)
(0 0 0)
(0 0 0)
(0 0 0)
(0 0 0)
(0 0 0)
(0 0 0)
(0 0 0)
(0 0 0)
(0 0 0)
(0 0 0)
(0 0 0)
(0 0 0)
(0 0 0)
(0 0 0)
(0 0 0)
(0 0 0)
(0 0 0)
(0 0 0)
(0 0 0)
(0 0 0)
(0 0 0)
(0 0 0)
(0 0 0)
(0 0 0)
(0 0 0)
(0 0 0)
(0 0 0)
(0 0 0)
(0 0 0)
(0 0 0)
(0 0 0)
(0 0 0)
(0 0 0)
(0 0 0)
(0 0 0)
(0 0 0)
(0 0 0)
(0 0 0)
(0 0 0)
(0 0 0)
(0 0 0)
(0 0 0)
(0 0 0)
(0 0 0)
(0 0 0)
(0 0 0)
(0 0 0)
(0 0 0)
(0 0 0)
(0 0 0)
(0 0 0)
(0 0 0)
(0 0 0)
(0 0 0)
(0 0 0)
(0 0 0)
(0 0 0)
(0 0 0)
(0 0 0)
(0 0 0)
(0 0 0)
(0 0 0)
(0 0 0)
(0 0 0)
(0 0 0)
(0 0 0)
(0 0 0)
(0 0 0)
(0 0 0)
(0 0 0)
(0 0 0)
(0 0 0)
(0 0 0)
(0 0 0)
(0 0 0)
(0 0 0)
(0 0 0)
(0 0 0)
(0 0 0)
(0 0 0)
(0 0 0)
(0 0 0)
(0 0 0)
(0 0 0)
(0 0 0)
(0 0 0)
(0 0 0)
(0 0 0)
(0 0 0)
(0 0 0)
(0 0 0)
(0 0 0)
(0 0 0)
(0 0 0)
(0 0 0)
(0 0 0)
(0 0 0)
(0 0 0)
(0 0 0)
(0 0 0)
(0 0 0)
(0 0 0)
(0 0 0)
(0 0 0)
(0 0 0)
(0 0 0)
(0 0 0)
(0 0 0)
(0 0 0)
(0 0 0)
(0 0 0)
(0 0 0)
(0 0 0)
(0 0 0)
(0 0 0)
(0 0 0)
(0 0 0)
(0 0 0)
(0 0 0)
(0 0 0)
(0 0 0)
(0 0 0)
(0 0 0)
(0 0 0)
(0 0 0)
(0 0 0)
(0 0 0)
(0 0 0)
(0 0 0)
(0 0 0)
(0 0 0)
(0 0 0)
(0 0 0)
(0 0 0)
(0 0 0)
(0 0 0)
(0 0 0)
(0 0 0)
(0 0 0)
(0 0 0)
(0 0 0)
(0 0 0)
(0 0 0)
(0 0 0)
(0 0 0)
(0 0 0)
(0 0 0)
(0 0 0)
(0 0 0)
(0 0 0)
(0 0 0)
(0 0 0)
(0 0 0)
(0 0 0)
(0 0 0)
(0 0 0)
(0 0 0)
(0 0 0)
(0 0 0)
(0 0 0)
(0 0 0)
(0 0 0)
(0 0 0)
(0 0 0)
(0 0 0)
(0 0 0)
(0 0 0)
(0 0 0)
(0 0 0)
(0 0 0)
(-1.01160149e-20 1.1376308e-08 -1.92369216e-21)
(-2.04400294e-20 2.29864057e-08 -3.8869304e-21)
(-3.13560933e-20 3.52619953e-08 -5.96273786e-21)
(-4.33309516e-20 4.87277428e-08 -8.23986056e-21)
(-5.68270108e-20 6.39034557e-08 -1.08062149e-20)
(-7.23082334e-20 8.13106947e-08 -1.37500066e-20)
(-9.02428069e-20 1.0147577e-07 -1.71602357e-20)
(-1.11101977e-19 1.24928428e-07 -2.11264717e-20)
(-1.35354489e-19 1.52195603e-07 -2.57377937e-20)
(-1.63456138e-19 1.83789672e-07 -3.10808001e-20)
(-1.95834082e-19 2.20190814e-07 -3.72366221e-20)
(-2.32865774e-19 2.61823328e-07 -4.42769152e-20)
(-2.74852724e-19 3.09026136e-07 -5.22588699e-20)
(-3.21989791e-19 3.62018258e-07 -6.12193732e-20)
(-3.7433128e-19 4.20860702e-07 -7.1168568e-20)
(-4.31755838e-19 4.85417002e-07 -8.20831878e-20)
(-4.93932855e-19 5.55315453e-07 -9.39001838e-20)
(-5.60293743e-19 6.29916829e-07 -1.06511285e-19)
(-6.30011955e-19 7.08291939e-07 -1.19759227e-19)
(-7.01995754e-19 7.892135e-07 -1.33436404e-19)
(-7.7489743e-19 8.71166518e-07 -1.47286654e-19)
(-8.47141797e-19 9.52380326e-07 -1.610107e-19)
(-9.16975325e-19 1.03088382e-06 -1.74275501e-19)
(-9.82535258e-19 1.10458313e-06 -1.86727398e-19)
(-1.04193578e-18 1.17135852e-06 -1.98008468e-19)
(-1.09336602e-18 1.22917446e-06 -2.0777511e-19)
(-1.13519279e-18 1.27619518e-06 -2.1571753e-19)
(-1.16606053e-18 1.31089687e-06 -2.21578651e-19)
(0 0 0)
(-2.0443139e-20 2.29899047e-08 -3.88752172e-21)
(-4.13011778e-20 4.64461285e-08 -7.85392493e-21)
(-6.33559927e-20 7.12475643e-08 -1.20478738e-20)
(-8.75609903e-20 9.84659396e-08 -1.66506451e-20)
(-1.1486069e-19 1.29163025e-07 -2.18418154e-20)
(-1.46203629e-19 1.64405113e-07 -2.78017104e-20)
(-1.82548492e-19 2.05269905e-07 -3.47125652e-20)
(-2.24862329e-19 2.52844501e-07 -4.27581782e-20)
(-2.74109708e-19 3.08213211e-07 -5.21218421e-20)
(-3.31231799e-19 3.72434033e-07 -6.29823579e-20)
(-3.97114585e-19 4.46502915e-07 -7.55079826e-20)
(-4.72545863e-19 5.31305418e-07 -8.98482473e-20)
(-5.58161391e-19 6.27556166e-07 -1.06123714e-19)
(-6.54381495e-19 7.35727582e-07 -1.24413924e-19)
(-7.613407e-19 8.55970777e-07 -1.44744028e-19)
(-8.78814398e-19 9.88033126e-07 -1.67070866e-19)
(-1.00614812e-18 1.13117876e-06 -1.91269554e-19)
(-1.14219637e-18 1.28411987e-06 -2.17121904e-19)
(-1.28527918e-18 1.4449678e-06 -2.44308224e-19)
(-1.43316473e-18 1.61121366e-06 -2.72404087e-19)
(-1.58308612e-18 1.77974712e-06 -3.00883592e-19)
(-1.73179835e-18 1.94692052e-06 -3.29130257e-19)
(-1.87567872e-18 2.10866173e-06 -3.5645614e-19)
(-2.01086954e-18 2.26063456e-06 -3.82128972e-19)
(-2.13345713e-18 2.39843997e-06 -4.0540614e-19)
(-2.23967618e-18 2.51784567e-06 -4.25573427e-19)
(-2.32612428e-18 2.61502728e-06 -4.41985656e-19)
(-2.3899692e-18 2.68680127e-06 -4.54105931e-19)
(0 0 0)
(-3.1365671e-20 3.5272774e-08 -5.96455915e-21)
(-6.33657622e-20 7.12585606e-08 -1.20497316e-20)
(-9.7218096e-20 1.09326291e-07 -1.84870669e-20)
(-1.3441302e-19 1.51151281e-07 -2.55599279e-20)
(-1.76428732e-19 1.98395231e-07 -3.35493487e-20)
(-2.24753341e-19 2.52730994e-07 -4.27382213e-20)
(-2.80896152e-19 3.15855248e-07 -5.34134312e-20)
(-3.46386406e-19 3.89487077e-07 -6.58656055e-20)
(-4.22757658e-19 4.75350403e-07 -8.03861282e-20)
(-5.11516077e-19 5.75138344e-07 -9.72610968e-20)
(-6.14091278e-19 6.90457932e-07 -1.16761957e-19)
(-7.3176892e-19 8.2275433e-07 -1.39132675e-19)
(-8.6560537e-19 9.73214895e-07 -1.64573499e-19)
(-1.01632624e-18 1.1426551e-06 -1.93221674e-19)
(-1.1842126e-18 1.33139064e-06 -2.2512982e-19)
(-1.36898105e-18 1.53910263e-06 -2.60243171e-19)
(-1.56966646e-18 1.76470577e-06 -2.98377342e-19)
(-1.78451859e-18 2.00623225e-06 -3.39198766e-19)
(-2.01092586e-18 2.26074606e-06 -3.82210327e-19)
(-2.24538049e-18 2.52430392e-06 -4.26744872e-19)
(-2.48349855e-18 2.7919778e-06 -4.71969166e-19)
(-2.72010579e-18 3.05795156e-06 -5.16900346e-19)
(-2.94939546e-18 3.31569826e-06 -5.60435995e-19)
(-3.16515691e-18 3.5582372e-06 -6.01397615e-19)
(-3.36106594e-18 3.77846017e-06 -6.38585729e-19)
(-3.53101864e-18 3.96950662e-06 -6.70843146e-19)
(-3.66948326e-18 4.12515913e-06 -6.97121568e-19)
(-3.77183978e-18 4.24022492e-06 -7.16545784e-19)
(0 0 0)
(-4.33495107e-20 4.87486335e-08 -8.24338975e-21)
(-8.75854542e-20 9.84934823e-08 -1.66552971e-20)
(-1.34430065e-19 1.51170476e-07 -2.55631691e-20)
(-1.85997496e-19 2.09156164e-07 -3.53689621e-20)
(-2.44389922e-19 2.74813689e-07 -4.64723244e-20)
(-3.11732314e-19 3.5053183e-07 -5.92771933e-20)
(-3.90191692e-19 4.38746632e-07 -7.41954386e-20)
(-4.81978328e-19 5.41942747e-07 -9.16470692e-20)
(-5.89326173e-19 6.62631415e-07 -1.12056485e-19)
(-7.14449826e-19 8.0330208e-07 -1.35844267e-19)
(-8.59475704e-19 9.66344984e-07 -1.63414058e-19)
(-1.02634584e-18 1.15394301e-06 -1.95134241e-19)
(-1.2166942e-18 1.36793258e-06 -2.31314402e-19)
(-1.43169742e-18 1.60963596e-06 -2.72176959e-19)
(-1.67190516e-18 1.8796704e-06 -3.17824907e-19)
(-1.93705834e-18 2.177744e-06 -3.68207347e-19)
(-2.22590817e-18 2.5024522e-06 -4.23085168e-19)
(-2.53605244e-18 2.85109397e-06 -4.82000112e-19)
(-2.86380943e-18 3.21953009e-06 -5.44251014e-19)
(-3.20415142e-18 3.60210859e-06 -6.08881436e-19)
(-3.55071974e-18 3.99168178e-06 -6.74682817e-19)
(-3.8959396e-18 4.37973542e-06 -7.40216566e-19)
(-4.23124593e-18 4.75664263e-06 -8.03857167e-19)
(-4.54742053e-18 5.11204283e-06 -8.63856314e-19)
(-4.83502774e-18 5.43533132e-06 -9.18425568e-19)
(-5.08492129e-18 5.71622885e-06 -9.65832335e-19)
(-5.28878235e-18 5.94538619e-06 -1.00450159e-18)
(-5.43964038e-18 6.11496929e-06 -1.03311421e-18)
(0 0 0)
(-5.68566464e-20 6.3936822e-08 -1.08118504e-20)
(-1.14903979e-19 1.29211774e-07 -2.1850047e-20)
(-1.76468946e-19 1.98440531e-07 -3.35569954e-20)
(-2.44415052e-19 2.74842007e-07 -4.64771029e-20)
(-3.21599956e-19 3.61628616e-07 -6.11536144e-20)
(-4.10928276e-19 4.62065572e-07 -7.81386294e-20)
(-5.153831e-19 5.79506289e-07 -9.79990619e-20)
(-6.38032727e-19 7.1739993e-07 -1.21317884e-19)
(-7.82008634e-19 8.79266621e-07 -1.48689891e-19)
(-9.50450619e-19 1.06863573e-06 -1.80711215e-19)
(-1.14641529e-18 1.28894297e-06 -2.17961867e-19)
(-1.3727449e-18 1.54338287e-06 -2.60980741e-19)
(-1.63189524e-18 1.83471532e-06 -3.10232853e-19)
(-1.92572445e-18 2.16502811e-06 -3.66069153e-19)
(-2.25524837e-18 2.53546191e-06 -4.28680056e-19)
(-2.62037375e-18 2.94591052e-06 -4.9804481e-19)
(-3.01962669e-18 3.39471562e-06 -5.73880044e-19)
(-3.44989982e-18 3.87838288e-06 -6.55592028e-19)
(-3.90624834e-18 4.39135278e-06 -7.42238283e-19)
(-4.38176811e-18 4.92586395e-06 -8.32504938e-19)
(-4.86759057e-18 5.47194759e-06 -9.24706311e-19)
(-5.35302433e-18 6.01758686e-06 -1.01681236e-18)
(-5.82586375e-18 6.54906383e-06 -1.10650773e-18)
(-6.27286873e-18 7.05149863e-06 -1.19128305e-18)
(-6.68039887e-18 7.50956219e-06 -1.26855525e-18)
(-7.0351627e-18 7.90831797e-06 -1.3358093e-18)
(-7.32502118e-18 8.23412468e-06 -1.39074984e-18)
(-7.53976989e-18 8.47551508e-06 -1.43144852e-18)
(0 0 0)
(-7.23509441e-20 8.13587935e-08 -1.37581283e-20)
(-1.46269911e-19 1.64479775e-07 -2.78143142e-20)
(-2.24823174e-19 2.52809681e-07 -4.27515e-20)
(-3.11791213e-19 3.50598218e-07 -5.92883926e-20)
(-4.10964082e-19 4.62105943e-07 -7.81454375e-20)
(-5.26219761e-19 5.91692253e-07 -1.00059676e-19)
(-6.61574171e-19 7.43871578e-07 -1.25794202e-19)
(-8.21198251e-19 9.23332527e-07 -1.56141343e-19)
(-1.00939612e-18 1.13491328e-06 -1.91918426e-19)
(-1.23053839e-18 1.38352657e-06 -2.33954999e-19)
(-1.4889447e-18 1.67402749e-06 -2.83070384e-19)
(-1.78870981e-18 2.01101799e-06 -3.40040503e-19)
(-2.13346998e-18 2.39858418e-06 -4.0555337e-19)
(-2.52611017e-18 2.83996709e-06 -4.80153351e-19)
(-2.96841795e-18 3.33717378e-06 -5.64175403e-19)
(-3.46069814e-18 3.89054425e-06 -6.57671947e-19)
(-4.00137107e-18 4.49829999e-06 -7.60336793e-19)
(-4.58658731e-18 5.15611143e-06 -8.71432438e-19)
(-5.20990206e-18 5.85673217e-06 -9.89728899e-19)
(-5.86205943e-18 6.58975701e-06 -1.11346367e-18)
(-6.53094005e-18 7.34156353e-06 -1.24033285e-18)
(-7.20172148e-18 8.09549259e-06 -1.3675227e-18)
(-7.8572869e-18 8.83230793e-06 -1.49178813e-18)
(-8.4788948e-18 9.53094879e-06 -1.60958034e-18)
(-9.04708999e-18 1.01695535e-05 -1.71721958e-18)
(-9.5427999e-18 1.07266911e-05 -1.81110229e-18)
(-9.94852505e-18 1.11826989e-05 -1.8879253e-18)
(-1.02495071e-17 1.15209942e-05 -1.94490524e-18)
(0 0 0)
(-9.03006168e-20 1.01540889e-07 -1.71712282e-20)
(-1.82642744e-19 2.05376099e-07 -3.4730487e-20)
(-2.81004082e-19 3.1597689e-07 -5.34339535e-20)
(-3.90296049e-19 4.38864281e-07 -7.42152809e-20)
(-5.1546911e-19 5.79603276e-07 -9.80154152e-20)
(-6.61626633e-19 7.43930746e-07 -1.25804176e-19)
(-8.34102293e-19 9.37842368e-07 -1.58594886e-19)
(-1.03849498e-18 1.16763179e-06 -1.97450891e-19)
(-1.28065159e-18 1.43987118e-06 -2.43482145e-19)
(-1.56658974e-18 1.76132421e-06 -2.97830342e-19)
(-1.90235144e-18 2.13878138e-06 -3.61640876e-19)
(-2.29377767e-18 2.57880657e-06 -4.36019791e-19)
(-2.74619707e-18 3.08738688e-06 -5.21974367e-19)
(-3.26402591e-18 3.66948301e-06 -6.20336946e-19)
(-3.85028497e-18 4.32848625e-06 -7.31673053e-19)
(-4.50604904e-18 5.06559991e-06 -8.5617694e-19)
(-5.22985848e-18 5.87917832e-06 -9.93560219e-19)
(-6.01713774e-18 6.76407383e-06 -1.14294221e-18)
(-6.85968161e-18 7.71105998e-06 -1.30275364e-18)
(-7.74528408e-18 8.70641515e-06 -1.47066786e-18)
(-8.65759214e-18 9.73175893e-06 -1.64357516e-18)
(-9.57626443e-18 1.07642309e-05 -1.81761503e-18)
(-1.04774972e-17 1.17770822e-05 -1.9882779e-18)
(-1.13349467e-17 1.27407116e-05 -2.15058129e-18)
(-1.21210282e-17 1.36241258e-05 -2.29931615e-18)
(-1.28085144e-17 1.43967341e-05 -2.42934838e-18)
(-1.33722959e-17 1.50303263e-05 -2.53594955e-18)
(-1.37911255e-17 1.55010321e-05 -2.61512322e-18)
(0 0 0)
(-1.11176433e-19 1.2501232e-07 -2.1140629e-20)
(-2.24990924e-19 2.52989423e-07 -4.27826294e-20)
(-3.4654527e-19 3.89666149e-07 -6.58958114e-20)
(-4.8214638e-19 5.42132216e-07 -9.1679021e-20)
(-6.38191466e-19 7.17578933e-07 -1.21348065e-19)
(-8.21328708e-19 9.23479653e-07 -1.56166145e-19)
(-1.03857438e-18 1.16772135e-06 -1.97465986e-19)
(-1.29737803e-18 1.4586777e-06 -2.46662022e-19)
(-1.60561643e-18 1.80520212e-06 -3.05249002e-19)
(-1.97150901e-18 2.21653251e-06 -3.74785592e-19)
(-2.4034416e-18 2.70209278e-06 -4.56860489e-19)
(-2.90968075e-18 3.27117157e-06 -5.53037698e-19)
(-3.49796558e-18 3.93246327e-06 -6.64778526e-19)
(-4.174969e-18 4.69346234e-06 -7.93338823e-19)
(-4.94563063e-18 5.55971369e-06 -9.3964204e-19)
(-5.81237827e-18 6.53393798e-06 -1.10413144e-18)
(-6.774274e-18 7.61507261e-06 -1.28660857e-18)
(-7.82614411e-18 8.79729461e-06 -1.48606931e-18)
(-8.95777755e-18 1.0069121e-05 -1.70055397e-18)
(-1.01533026e-17 1.14127096e-05 -1.92703206e-18)
(-1.1390868e-17 1.28035011e-05 -2.16134566e-18)
(-1.26427558e-17 1.42103476e-05 -2.39823523e-18)
(-1.38760354e-17 1.55962473e-05 -2.63146743e-18)
(-1.50538176e-17 1.6919754e-05 -2.85407563e-18)
(-1.61370975e-17 1.81370472e-05 -3.0587095e-18)
(-1.70870805e-17 1.92045448e-05 -3.23807301e-18)
(-1.78677886e-17 2.00818304e-05 -3.3854123e-18)
(-1.844867e-17 2.07345844e-05 -3.49500148e-18)
(0 0 0)
(-1.35444015e-19 1.52296514e-07 -2.57548157e-20)
(-2.74280355e-19 3.08405557e-07 -5.21542874e-20)
(-4.22988509e-19 4.75610623e-07 -8.04300191e-20)
(-5.89587943e-19 6.62926526e-07 -1.12106253e-19)
(-7.8227753e-19 8.79569795e-07 -1.48741012e-19)
(-1.00964743e-18 1.13519665e-06 -1.91966202e-19)
(-1.28085358e-18 1.44009895e-06 -2.43520543e-19)
(-1.60573695e-18 1.80533803e-06 -3.05271908e-19)
(-1.99483526e-18 2.24275752e-06 -3.79219124e-19)
(-2.4592975e-18 2.76488691e-06 -4.67475147e-19)
(-3.01068178e-18 3.38471389e-06 -5.72227964e-19)
(-3.66060173e-18 4.11528655e-06 -6.95672585e-19)
(-4.42020137e-18 4.96912283e-06 -8.39910408e-19)
(-5.2994392e-18 5.95740585e-06 -1.0068124e-18)
(-6.30617804e-18 7.08896115e-06 -1.19784567e-18)
(-7.44509513e-18 8.36903243e-06 -1.4138664e-18)
(-8.71645487e-18 9.79790331e-06 -1.65488771e-18)
(-1.01148189e-17 1.13694492e-05 -1.91983694e-18)
(-1.16278096e-17 1.30697492e-05 -2.2063247e-18)
(-1.32350839e-17 1.48759351e-05 -2.51045601e-18)
(-1.49077107e-17 1.67554929e-05 -2.82671941e-18)
(-1.66081532e-17 1.86662442e-05 -3.14799217e-18)
(-1.82910408e-17 2.05572144e-05 -3.46569462e-18)
(-1.99048501e-17 2.23705208e-05 -3.77011444e-18)
(-2.13945045e-17 2.40442927e-05 -4.05090045e-18)
(-2.27047556e-17 2.55164696e-05 -4.29769818e-18)
(-2.37840486e-17 2.67291419e-05 -4.50087006e-18)
(-2.45884388e-17 2.76329497e-05 -4.65221995e-18)
(0 0 0)
(-1.63545999e-19 1.83891049e-07 -3.10978838e-20)
(-3.31451535e-19 3.7268175e-07 -6.30241333e-20)
(-5.11856462e-19 5.75521981e-07 -9.73258091e-20)
(-7.14854629e-19 8.03758347e-07 -1.35921224e-19)
(-9.5089185e-19 1.06913307e-06 -1.80795092e-19)
(-1.23098581e-18 1.38403088e-06 -2.34040047e-19)
(-1.56698815e-18 1.76177332e-06 -2.97906067e-19)
(-1.9718178e-18 2.21688063e-06 -3.74844276e-19)
(-2.45948095e-18 2.76509373e-06 -4.67510007e-19)
(-3.04499578e-18 3.42328893e-06 -5.78747503e-19)
(-3.74418269e-18 4.20924164e-06 -7.1154884e-19)
(-4.57323647e-18 5.14114478e-06 -8.68971141e-19)
(-5.54806622e-18 6.23686667e-06 -1.05400954e-18)
(-6.68335793e-18 7.5128973e-06 -1.26941746e-18)
(-7.99134878e-18 8.98297136e-06 -1.51747254e-18)
(-9.48031784e-18 1.0656373e-05 -1.79968956e-18)
(-1.11528414e-17 1.25359771e-05 -2.11649026e-18)
(-1.30039006e-17 1.46161248e-05 -2.46684757e-18)
(-1.50189941e-17 1.68805049e-05 -2.84793397e-18)
(-1.71724799e-17 1.93002943e-05 -3.25481738e-18)
(-1.94264343e-17 2.18328763e-05 -3.68025848e-18)
(-2.17303465e-17 2.44215002e-05 -4.11466942e-18)
(-2.40219571e-17 2.69962231e-05 -4.54628906e-18)
(-2.62294657e-17 2.94763897e-05 -4.96161366e-18)
(-2.82751732e-17 3.17747231e-05 -5.34609058e-18)
(-3.00803918e-17 3.38028391e-05 -5.68503931e-18)
(-3.1571189e-17 3.5477697e-05 -5.96471576e-18)
(-3.268429e-17 3.67282285e-05 -6.1733949e-18)
(0 0 0)
(-1.95838275e-19 2.20195977e-07 -3.72374133e-20)
(-3.97383198e-19 4.46805799e-07 -7.55590443e-20)
(-6.14619463e-19 6.91053035e-07 -1.16862367e-19)
(-8.60099799e-19 9.67048223e-07 -1.63532695e-19)
(-1.14712703e-18 1.28974495e-06 -2.18097157e-19)
(-1.48972492e-18 1.67490655e-06 -2.83218679e-19)
(-1.90307313e-18 2.1395946e-06 -3.61778033e-19)
(-2.40405235e-18 2.7027811e-06 -4.56976543e-19)
(-3.01115884e-18 3.38525157e-06 -5.72318594e-19)
(-3.74446791e-18 4.2095631e-06 -7.11603011e-19)
(-4.62548042e-18 5.19987091e-06 -8.78891724e-19)
(-5.67660192e-18 6.38134215e-06 -1.07840814e-18)
(-6.9203451e-18 7.77925904e-06 -1.31438254e-18)
(-8.37811804e-18 9.4176571e-06 -1.59081872e-18)
(-1.00686002e-17 1.13175011e-05 -1.91118268e-18)
(-1.20056753e-17 1.34943634e-05 -2.27800862e-18)
(-1.41959838e-17 1.59556773e-05 -2.69243523e-18)
(-1.66361794e-17 1.86976564e-05 -3.15369013e-18)
(-1.93100808e-17 2.1702099e-05 -3.6585605e-18)
(-2.21860351e-17 2.49334278e-05 -4.20091128e-18)
(-2.52149147e-17 2.83364427e-05 -4.7713314e-18)
(-2.8329246e-17 3.1835343e-05 -5.3570006e-18)
(-3.14439775e-17 3.53345897e-05 -5.94186823e-18)
(-3.44592975e-17 3.87220698e-05 -6.50721397e-18)
(-3.72656887e-17 4.18747727e-05 -7.03261568e-18)
(-3.97510446e-17 4.46667819e-05 -7.49728194e-18)
(-4.18092222e-17 4.69788805e-05 -7.88162618e-18)
(-4.334898e-17 4.87085903e-05 -8.16888783e-18)
(0 0 0)
(-2.32915794e-19 2.61880155e-07 -4.42864175e-20)
(-4.72912352e-19 5.31718622e-07 -8.9917914e-20)
(-7.32360461e-19 8.23421069e-07 -1.39245123e-19)
(-1.02708833e-18 1.15477986e-06 -1.9527537e-19)
(-1.37386089e-18 1.54463996e-06 -2.61192853e-19)
(-1.79009086e-18 2.01257326e-06 -3.40302974e-19)
(-2.29503299e-18 2.58022054e-06 -4.36258333e-19)
(-2.91077402e-18 3.27240329e-06 -5.53245403e-19)
(-3.66156953e-18 4.11637695e-06 -6.95856402e-19)
(-4.57399252e-18 5.14199667e-06 -8.69114691e-19)
(-5.67706455e-18 6.38186343e-06 -1.07849594e-18)
(-7.00151336e-18 7.87048857e-06 -1.32978233e-18)
(-8.57891293e-18 9.64332681e-06 -1.62889347e-18)
(-1.04401129e-17 1.17350117e-05 -1.98158192e-18)
(-1.26131427e-17 1.41770019e-05 -2.3930292e-18)
(-1.51203994e-17 1.69944243e-05 -2.86730769e-18)
(-1.79752792e-17 2.02022927e-05 -3.40674103e-18)
(-2.11782527e-17 2.38011033e-05 -4.01116646e-18)
(-2.47126167e-17 2.77720661e-05 -4.67714664e-18)
(-2.85403637e-17 3.20724679e-05 -5.39721836e-18)
(-3.2598777e-17 3.66318503e-05 -6.15929502e-18)
(-3.67985185e-17 4.13498611e-05 -6.94636578e-18)
(-4.10240281e-17 4.6096701e-05 -7.7366386e-18)
(-4.51369671e-17 5.071699e-05 -8.50425078e-18)
(-4.89831392e-17 5.5037538e-05 -9.22060768e-18)
(-5.24027686e-17 5.88788876e-05 -9.85630572e-18)
(-5.52432624e-17 6.20696482e-05 -1.03834621e-17)
(-5.7372817e-17 6.44617793e-05 -1.07781478e-17)
(0 0 0)
(-2.75034986e-19 3.09231841e-07 -5.22935174e-20)
(-5.58586594e-19 6.28035753e-07 -1.06204545e-19)
(-8.66198674e-19 9.73884137e-07 -1.6468628e-19)
(-1.21760705e-18 1.36896163e-06 -2.3148791e-19)
(-1.6333698e-18 1.8363763e-06 -3.10513107e-19)
(-2.1351219e-18 2.40044487e-06 -4.0586731e-19)
(-2.74776886e-18 3.08915769e-06 -5.22273007e-19)
(-3.4997874e-18 3.93451519e-06 -6.65124556e-19)
(-4.42202369e-18 4.97117522e-06 -8.40256434e-19)
(-5.54962073e-18 6.23861772e-06 -1.05430458e-18)
(-6.92160282e-18 7.7806759e-06 -1.31462114e-18)
(-8.57964416e-18 9.64415075e-06 -1.6290321e-18)
(-1.05676531e-17 1.18783437e-05 -2.00574798e-18)
(-1.29295557e-17 1.45325669e-05 -2.45293111e-18)
(-1.57067767e-17 1.76533152e-05 -2.9782051e-18)
(-1.89343584e-17 2.12799102e-05 -3.58790819e-18)
(-2.26364802e-17 2.54394718e-05 -4.28623889e-18)
(-2.6820931e-17 3.01407144e-05 -5.07421518e-18)
(-3.14728395e-17 3.5366909e-05 -5.94851289e-18)
(-3.65483029e-17 4.10687291e-05 -6.90031191e-18)
(-4.19687469e-17 4.71579159e-05 -7.91431386e-18)
(-4.76171817e-17 5.35030704e-05 -8.96815012e-18)
(-5.33376512e-17 5.99290314e-05 -1.0032413e-17)
(-5.89391457e-17 6.62212641e-05 -1.10715219e-17)
(-6.42048881e-17 7.21362882e-05 -1.20455541e-17)
(-6.89070948e-17 7.74182541e-05 -1.291301e-17)
(-7.28260516e-17 8.18203709e-05 -1.36342624e-17)
(-7.57709571e-17 8.51283202e-05 -1.4175215e-17)
(0 0 0)
(-3.22175133e-19 3.6222766e-07 -6.12546076e-20)
(-6.54776007e-19 7.36173113e-07 -1.2448892e-19)
(-1.01695851e-18 1.14336881e-06 -1.93341863e-19)
(-1.43270407e-18 1.61077129e-06 -2.72368299e-19)
(-1.92714419e-18 2.16662846e-06 -3.66338989e-19)
(-2.52763983e-18 2.84169151e-06 -4.80444044e-19)
(-3.26584483e-18 3.67153298e-06 -6.20682503e-19)
(-4.17718863e-18 4.69596305e-06 -7.93760395e-19)
(-5.30182575e-18 5.96009442e-06 -1.00726545e-18)
(-6.68623305e-18 7.51613505e-06 -1.2699629e-18)
(-8.38083641e-18 9.4207185e-06 -1.59133415e-18)
(-1.04420728e-17 1.17372199e-05 -1.9819532e-18)
(-1.29306964e-17 1.45338526e-05 -2.453147e-18)
(-1.59083625e-17 1.78798314e-05 -3.01632446e-18)
(-1.9435541e-17 2.18430332e-05 -3.68255639e-18)
(-2.3565596e-17 2.64833519e-05 -4.46143004e-18)
(-2.83393708e-17 3.18466229e-05 -5.3600071e-18)
(-3.37774912e-17 3.79559843e-05 -6.38136916e-18)
(-3.9871185e-17 4.48015699e-05 -7.52291588e-18)
(-4.6572629e-17 5.2329667e-05 -8.77462412e-18)
(-5.37858024e-17 6.04324401e-05 -1.01174679e-17)
(-6.13596441e-17 6.89402384e-05 -1.15223427e-17)
(-6.90854871e-17 7.76187057e-05 -1.29498483e-17)
(-7.67009036e-17 8.61730918e-05 -1.43512854e-17)
(-8.39017848e-17 9.42618156e-05 -1.56711204e-17)
(-9.03633376e-17 0.000101520049 -1.68509437e-17)
(-9.57686244e-17 0.000107591775 -1.78345758e-17)
(-9.98407227e-17 0.000112165921 -1.85735795e-17)
(0 0 0)
(-3.74505218e-19 4.21057548e-07 -7.12016345e-20)
(-7.61702476e-19 8.56380025e-07 -1.44812801e-19)
(-1.18479092e-18 1.33204446e-06 -2.25239753e-19)
(-1.67275549e-18 1.88063101e-06 -3.17986535e-19)
(-2.25640069e-18 2.53676287e-06 -4.28899061e-19)
(-2.96986739e-18 3.33880952e-06 -5.64450828e-19)
(-3.85222666e-18 4.33067602e-06 -7.32041917e-19)
(-4.9478796e-18 5.56224958e-06 -9.40069162e-19)
(-6.30905777e-18 7.09220673e-06 -1.19839224e-18)
(-7.99491899e-18 8.98699378e-06 -1.51814985e-18)
(-1.00722132e-17 1.13215721e-05 -1.9118674e-18)
(-1.26171795e-17 1.41815494e-05 -2.39379319e-18)
(-1.5709901e-17 1.76568362e-05 -2.97879573e-18)
(-1.94368182e-17 2.18444753e-05 -3.6827971e-18)
(-2.3885841e-17 2.68431569e-05 -4.52180061e-18)
(-2.9135884e-17 3.27414712e-05 -5.50986063e-18)
(-3.52528678e-17 3.96134274e-05 -6.65828411e-18)
(-4.22787396e-17 4.75061283e-05 -7.97354109e-18)
(-5.02180198e-17 5.64246624e-05 -9.45476273e-18)
(-5.90235839e-17 6.63161308e-05 -1.10911853e-17)
(-6.85820528e-17 7.70532277e-05 -1.28596459e-17)
(-7.87019122e-17 8.8420884e-05 -1.47227374e-17)
(-8.91070787e-17 0.000100109026 -1.66281177e-17)
(-9.94393898e-17 0.000111715364 -1.85095464e-17)
(-1.09273518e-16 0.000122762138 -2.02901384e-17)
(-1.18146381e-16 0.000132729155 -2.18879918e-17)
(-1.25599793e-16 0.000141101709 -2.32237402e-17)
(-1.3123051e-16 0.000147426798 -2.42288767e-17)
(0 0 0)
(-4.31913632e-19 4.85596002e-07 -8.21131849e-20)
(-8.79139001e-19 9.88401182e-07 -1.67132572e-19)
(-1.36949344e-18 1.5396832e-06 -2.6034057e-19)
(-1.93779243e-18 2.17857509e-06 -3.68346874e-19)
(-2.62136521e-18 2.94703214e-06 -4.98233233e-19)
(-3.46199252e-18 3.89200757e-06 -6.57917893e-19)
(-4.50774751e-18 5.06751871e-06 -8.56499579e-19)
(-5.8145768e-18 6.53642027e-06 -1.10454892e-18)
(-7.44815301e-18 8.37248221e-06 -1.41444676e-18)
(-9.48377617e-18 1.06602748e-05 -1.80034562e-18)
(-1.20099147e-17 1.34991448e-05 -2.2788118e-18)
(-1.51251832e-17 1.69998193e-05 -2.8682132e-18)
(-1.89379409e-17 2.1283956e-05 -3.5885845e-18)
(-2.35685369e-17 2.64866747e-05 -4.46198219e-18)
(-2.91388106e-17 3.27447716e-05 -5.51040891e-18)
(-3.5763812e-17 4.01874315e-05 -6.75414832e-18)
(-4.35467026e-17 4.89305124e-05 -8.2107071e-18)
(-5.25636356e-17 5.90595693e-05 -9.8919038e-18)
(-6.28438095e-17 7.06074488e-05 -1.18001324e-17)
(-7.43498472e-17 8.35322392e-05 -1.39248429e-17)
(-8.6954399e-17 9.76909741e-05 -1.6238549e-17)
(-1.00420536e-16 0.000112817587 -1.86938392e-17)
(-1.1438838e-16 0.00012850788 -2.12218592e-17)
(-1.2837352e-16 0.000144217728 -2.37331876e-17)
(-1.41783717e-16 0.000159281846 -2.61220108e-17)
(-1.53959027e-16 0.000172958867 -2.82740566e-17)
(-1.64235281e-16 0.000184502662 -3.00777487e-17)
(-1.72022646e-16 0.000193250597 -3.14367985e-17)
(0 0 0)
(-4.94073813e-19 5.55475874e-07 -9.39269799e-20)
(-1.00643638e-18 1.13150666e-06 -1.91324352e-19)
(-1.57011812e-18 1.76521911e-06 -2.98463194e-19)
(-2.22655009e-18 2.50318109e-06 -4.23207174e-19)
(-3.02049519e-18 3.39570088e-06 -5.74045092e-19)