/*--------------------------------*- C++ -*----------------------------------*\
| =========                 |                                                 |
| \\      /  F ield         | foam-extend: Open Source CFD                    |
|  \\    /   O peration     | Version:     4.1                                |
|   \\  /    A nd           | Web:         http://www.foam-extend.org         |
|    \\/     M anipulation  |                                                 |
\*---------------------------------------------------------------------------*/
FoamFile
{
    version     2.0;
    format      ascii;
    class       volScalarField;
    location    "0.2";
    object      rAU;
}
// * * * * * * * * * * * * * * * * * * * * * * * * * * * * * * * * * * * * * //

dimensions      [0 0 1 0 0 0 0];

internalField   nonuniform List<scalar> 
35840
(
0.000714285756
0.000836637515
0.000924548329
0.00099961238
0.00105386346
0.00109046211
0.0011150442
0.0011317839
0.00114331404
0.00115143401
0.00115735231
0.00116182255
0.0011653052
0.00116808772
0.00117035426
0.00117222631
0.00117378757
0.00117502721
0.00117607451
0.0011769747
0.00117775374
0.00117843394
0.00117903471
0.00117957313
0.00118006423
0.00118052127
0.00118095583
0.0011813779
0.000739083738
0.000819497487
0.000880891871
0.000951172403
0.0010161231
0.00106944441
0.00111046669
0.00114131477
0.00116442333
0.00118185096
0.00119520874
0.00120565749
0.0012139924
0.0012207558
0.00122632198
0.00123095332
0.00123483808
0.00123803639
0.0012407476
0.00124295468
0.00124481184
0.00124644943
0.0012479084
0.00124922481
0.00125043049
0.00125155347
0.00125261824
0.00125364589
0.000753175608
0.000833322807
0.00087839838
0.00092931436
0.000978234792
0.00102100101
0.00105596517
0.00108369683
0.00110556713
0.00112290887
0.00113681807
0.00114812721
0.00115743932
0.00116518898
0.00117169388
0.00117718992
0.0011818556
0.00118582907
0.00118921995
0.00119201417
0.00119414972
0.00119603699
0.00119773819
0.00119929075
0.00120072793
0.00120207913
0.00120336993
0.00120462221
0.000760308921
0.0008501128
0.000895623469
0.000941325264
0.000982258187
0.00101676197
0.00104457895
0.001066635
0.00108423408
0.00109850426
0.00111028544
0.00112016671
0.00112855116
0.00113571961
0.00114187659
0.00114717777
0.00115174618
0.00115568207
0.0011590692
0.00116197896
0.00116397425
0.00116574318
0.00116736162
0.00116886207
0.00117027413
0.00117162414
0.00117293504
0.00117422614
0.000763382424
0.000860199198
0.000909774949
0.000956402056
0.000995499576
0.00102638723
0.00104993904
0.00106782481
0.00108170191
0.00109282888
0.00110204959
0.00110989174
0.0011166736
0.00112258963
0.00112776664
0.00113229542
0.00113624727
0.00113968232
0.00114265369
0.00114509653
0.00114662869
0.00114802093
0.00114932042
0.00115055298
0.00115174291
0.00115291226
0.00115408017
0.00115526239
0.000765073919
0.000866246402
0.000919348306
0.000968015985
0.00100751224
0.00103741746
0.0010591257
0.00107479718
0.00108640949
0.00109540148
0.0011027042
0.00110887314
0.00111422078
0.00111891899
0.00112306478
0.00112671789
0.00112992065
0.00113270777
0.00113511085
0.00113669964
0.00113764627
0.00113853882
0.00113939773
0.00114024405
0.00114109831
0.00114197938
0.00114290354
0.0011438837
0.000766121207
0.000870080913
0.000925796052
0.000976360117
0.00101678033
0.00104669406
0.0010677412
0.00108237293
0.00109278584
0.00110055317
0.00110668048
0.00111175973
0.00111611747
0.00111992681
0.00112327861
0.00112622242
0.00112878872
0.00113100017
0.00113279331
0.00113341232
0.00113381121
0.00113420365
0.00113460887
0.00113504703
0.00113553801
0.00113610014
0.00113674903
0.00113749649
0.00076681632
0.000872663685
0.000930309261
0.000982463527
0.00102385635
0.00105410012
0.00107497238
0.00108911849
0.00109889381
0.0011059717
0.00111141278
0.00111583602
0.00111957938
0.0011228191
0.00112564466
0.00112810159
0.0011302149
0.00113200113
0.00113289992
0.00113283983
0.0011327806
0.00113274235
0.00113274711
0.00113281777
0.00113297681
0.00113324487
0.00113363935
0.00113417302
0.000767309632
0.000874503177
0.000933598415
0.000987055385
0.00102935426
0.00106003966
0.00108096165
0.00109489811
0.00110432451
0.00111099578
0.00111601932
0.00112003735
0.00112339742
0.00112627815
0.00112876765
0.00113090814
0.00113272023
0.00113397557
0.00113385268
0.00113342455
0.00113300442
0.00113261775
0.00113229182
0.0011320548
0.00113193428
0.00113195566
0.00113214033
0.00113250391
0.0007676775
0.000875872259
0.000936079362
0.00099060065
0.00103371255
0.00106487546
0.0010859685
0.0010998566
0.00110910458
0.00111553405
0.00112029417
0.00112404983
0.00112715903
0.00112980381
0.00113207176
0.00113400229
0.00113561187
0.00113570973
0.00113501729
0.00113430079
0.00113358947
0.00113291519
0.00113231197
0.00113181502
0.00113145914
0.00113127663
0.00113129496
0.00113153433
0.000767962194
0.00087692828
0.000938008088
0.000993404131
0.00103723357
0.00106887281
0.00109020396
0.00110414686
0.00111333088
0.00111963037
0.00112423047
0.00112781752
0.00113076086
0.00113324737
0.00113536545
0.00113715264
0.00113777546
0.00113695
0.00113602637
0.0011350632
0.00113409612
0.00113316409
0.00113230912
0.00113157525
0.00113100659
0.00113064472
0.00113052551
0.00113067575
0.00076818914
0.000877767012
0.000939546961
0.000995668865
0.00104012724
0.0010722226
0.00109382622
0.00110789103
0.00111709212
0.00112334444
0.00112786286
0.00113135297
0.00113419526
0.00113658225
0.00113860407
0.00113955865
0.00113893116
0.00113789496
0.00113675926
0.00113556269
0.00113434742
0.00113316029
0.00113205272
0.00113107961
0.00113029704
0.00112975886
0.00112951248
0.00112959403
0.000768374306
0.000878448963
0.000940801666
0.000997532665
0.00104254199
0.00107506477
0.00109695511
0.00111118478
0.00112046093
0.0011267293
0.00113122878
0.00113468148
0.00113747819
0.00113981705
0.00114115342
0.00114080872
0.00113976906
0.00113855513
0.00113720859
0.0011357731
0.00113429736
0.00113283682
0.00113145388
0.00113021683
0.00112919713
0.0011284651
0.00112808403
0.00112810337
0.000768528094
0.000879013729
0.000941842913
0.000999090888
0.00104458429
0.00107750318
0.00109968235
0.00111410351
0.0011234962
0.00112982946
0.0011343614
0.00113782799
0.00114062913
0.00114242648
0.00114246395
0.00114155138
0.00114037478
0.00113898091
0.00113741393
0.00113572142
0.0011339583
0.00113218914
0.00113048901
0.00112894261
0.00112764124
0.00112667734
0.00112613642
0.00112608724
0.000768657501
0.000879488015
0.000942719136
0.00100041056
0.00104633126
0.00107961531
0.00110207837
0.00111670667
0.00112624549
0.00113268163
0.00113728863
0.00114081409
0.00114321283
0.00114376354
0.00114313416
0.0011421334
0.0011408194
0.00113923822
0.00113743435
0.00113545767
0.00113336829
0.00113123997
0.00112916201
0.00112723903
0.00112558789
0.00112433089
0.001123585
0.00112344739
0.000768767356
0.000879890275
0.000943464175
0.00100153943
0.00104783913
0.00108145904
0.001104197
0.00111904063
0.00112874648
0.00113531516
0.00114003279
0.00114328579
0.00114453732
0.00114437974
0.00114371647
0.00114263148
0.00114117886
0.00113940102
0.00113733999
0.00113504526
0.00113258011
0.00113002669
0.00112748961
0.00112509722
0.00112299905
0.00112135798
0.00112033584
0.00112007241
0.000768861065
0.000880233525
0.000944102061
0.00100251185
0.00104914906
0.0010830775
0.00110607901
0.00112114088
0.00113102804
0.00113775221
0.00114231322
0.00114455591
0.00114510965
0.00114497346
0.00114428564
0.00114312329
0.00114153332
0.00113955093
0.00113721172
0.00113456082
0.0011316611
0.00112860067
0.00112549942
0.00112251301
0.00111983229
0.00111767518
0.0011162682
0.00111579808
0.000768941078
0.000880527105
0.000944650087
0.00100335273
0.0010502912
0.00108450256
0.0011077546
0.00112303358
0.00113311097
0.00113977598
0.00114348856
0.00114508644
0.00114571262
0.0011456122
0.00114491492
0.00114368833
0.00114196861
0.00113977934
0.00113714439
0.00113409865
0.00113069862
0.00112703337
0.0011232356
0.00111949064
0.00111604035
0.0011131769
0.00111121019
0.00111042412
0.00076900919
0.000880777831
0.000945120836
0.00100408021
0.00105128753
0.00108575741
0.00110924553
0.00112473696
0.0011348312
0.00114082141
0.00114397326
0.00114568561
0.00114640229
0.00114635949
0.00114567662
0.0011444089
0.00114257788
0.00114019029
0.00113725144
0.00113377758
0.00112980938
0.00112542765
0.00112077097
0.00111605328
0.00111157667
0.00110773206
0.00110492156
0.00110367886
0.00076906675
0.000880990773
0.00094552358
0.00100470756
0.00105215396
0.00108685855
0.00111056671
0.00112612756
0.00113571967
0.00114125278
0.00114454875
0.00114639533
0.00114722836
0.00114727458
0.00114664167
0.00114537005
0.00114346266
0.00114090332
0.00113767026
0.00113374968
0.00112915224
0.00112393469
0.00111822685
0.00111226263
0.00110640953
0.00110113802
0.00109713208
0.00109516168
0.000769114805
0.000881169803
0.000945865269
0.00100524453
0.00105290194
0.00108781738
0.00111162306
0.001126842
0.00113608949
0.00114178253
0.00114524196
0.00114724932
0.00114823315
0.00114841089
0.00114787792
0.00114665808
0.00114473214
0.00114205469
0.00113856678
0.00113420979
0.00112894431
0.0011227777
0.00111580342
0.0011082523
0.00110052452
0.00109323884
0.00108744864
0.00108429179
0.000769154209
0.000881317998
0.000946151264
0.00100569841
0.00105353968
0.00108855577
0.00111215768
0.00112714371
0.00113655352
0.00114242363
0.0011460707
0.00114827173
0.00114944942
0.00114981317
0.00114944669
0.00114835685
0.00114649989
0.00114379569
0.00114013773
0.00113540475
0.00112947998
0.00112228354
0.00111382505
0.001104282
0.0010939655
0.00108386469
0.00107534491
0.00107020246
0.000769185702
0.000881437945
0.000946385899
0.00100607488
0.00105399618
0.00108891655
0.00111238829
0.00112752737
0.00113711331
0.0011431801
0.00114704245
0.00114947509
0.00115089738
0.00115151321
0.00115139714
0.00115054093
0.00114887664
0.00114628662
0.00114260813
0.00113763896
0.00113115185
0.00112292651
0.00111281247
0.001100705
0.00108704029
0.00107287598
0.00106006609
0.00105147646
0.00076920998
0.000881531946
0.000946571257
0.0010063056
0.00105420112
0.00108907803
0.00111268432
0.00112798649
0.00113776254
0.00114404626
0.0011481529
0.00115085789
0.00115258078
0.00115352418
0.00115375831
0.00115326511
0.00115195731
0.0011496825
0.00114621904
0.00114127006
0.00113446401
0.00112537423
0.0011134851
0.00109839993
0.00108040005
0.00106036478
0.00104055625
0.00102561754
0.000769219023
0.000881577102
0.000946649179
0.00100638692
0.0010543013
0.00108928755
0.00111303475
0.00112850836
0.00113848684
0.00114500605
0.00114938458
0.00115240207
0.00115448276
0.00115583386
0.00115652888
0.00115654948
0.00115580052
0.00115410704
0.00115119834
0.00114668331
0.00114002312
0.00113051607
0.00111692794
0.00109871793
0.00107529851
0.00104694373
0.00101574838
0.000989302203
0.000769215384
0.000881578574
0.000946654434
0.00100643968
0.00105443407
0.00108953273
0.00111342421
0.00112907437
0.0011392639
0.00114603288
0.00115070608
0.00115407108
0.00115656203
0.00115839794
0.00115966575
0.00116036106
0.00116040033
0.00115961176
0.00115770709
0.00115423303
0.00114850087
0.00113920641
0.00112489129
0.00110383958
0.00107396076
0.00103387243
0.000985002516
0.00094194464
0.000769212731
0.00088157823
0.00094667735
0.00100651306
0.00105458806
0.0010897985
0.00111383354
0.00112966062
0.00114006409
0.00114709016
0.00115207224
0.00115580944
0.0011587509
0.0011611351
0.00116307397
0.00116459456
0.00116565179
0.00116611781
0.00116574763
0.00116411341
0.00116044066
0.00115293559
0.00113994856
0.00111820476
0.00108288582
0.00102838164
0.000954115378
0.000894061638
0.000769213322
0.00088158708
0.000946712102
0.00100659783
0.00105475035
0.00109006771
0.00111424061
0.00113023897
0.00114085185
0.00114813291
0.00115342598
0.00115754437
0.00116095637
0.00116392642
0.00116660196
0.00116905886
0.00117131933
0.0011733483
0.0011750274
0.00117609754
0.00117571054
0.00117254599
0.00116478596
0.00114849033
0.00111651005
0.00105776054
0.000965368501
0.000883250398
0.000739802519
0.000821720552
0.000884286168
0.000955195343
0.00102016043
0.00107303803
0.00111337007
0.00114346655
0.00116587967
0.00118271896
0.00119560536
0.00120569078
0.00121375501
0.00122032423
0.0012257583
0.00123030754
0.00123415059
0.00123741936
0.0012402148
0.00124261679
0.00124469064
0.00124649123
0.00124806567
0.00124945509
0.00125069583
0.00125182018
0.00125285693
0.00125383158
0.000752948093
0.000758100374
0.000763153131
0.00079631447
0.000843041773
0.00089403567
0.000942831422
0.000986191229
0.00102312181
0.00105381151
0.0010790419
0.0010997802
0.00111692404
0.00113121193
0.00114322212
0.00115339791
0.00116207728
0.00116952004
0.0011759295
0.0011814684
0.00118627031
0.00119044741
0.00119409609
0.00119730077
0.00120013652
0.00120267086
0.00120496488
0.00120707384
0.000770705418
0.000770884723
0.00075422983
0.000761610932
0.000782822762
0.00081181948
0.000843664333
0.000875071328
0.000904264694
0.000930421259
0.000953329147
0.00097315192
0.000990223726
0.00100491814
0.00101758723
0.00102853871
0.00103803129
0.00104627892
0.00105345829
0.0010597166
0.00106517824
0.00106995011
0.00107412573
0.00107778837
0.00108101339
0.00108386985
0.00108642158
0.00108872777
0.000779770134
0.000790743916
0.000774250218
0.000776094285
0.000787816038
0.000805265838
0.000825333343
0.000845960031
0.000865985827
0.000884761701
0.000901958336
0.000917476087
0.000931355367
0.000943704624
0.000954658801
0.000964357588
0.00097293407
0.000980509786
0.000987193688
0.000993082964
0.000998264599
0.0010028171
0.00100681212
0.00101031595
0.00101339073
0.00101609545
0.00101848651
0.00102061805
0.000783419415
0.000802127866
0.000790101895
0.000794028464
0.000805253909
0.000819677983
0.000834857749
0.00084962297
0.000863572822
0.000876583361
0.000888617857
0.000899685038
0.000909817133
0.000919054928
0.000927442896
0.000935028214
0.000941859709
0.00094798672
0.000953458314
0.000958322855
0.000962627784
0.000966419615
0.000969744082
0.000972646433
0.000975171768
0.000977365335
0.000979272711
0.000980939777
0.000785372157
0.000808597844
0.00080013338
0.000806888864
0.000819980838
0.000834971396
0.000849342621
0.000862157683
0.000873386378
0.000883277133
0.000892095579
0.000900056212
0.000907308725
0.000913946445
0.000920024356
0.00092557567
0.000930622933
0.00093518455
0.000939278369
0.000942923514
0.000946141173
0.000948954882
0.000951390641
0.000953476979
0.000955245023
0.000956728534
0.000957963871
0.000958989784
0.000786563058
0.000812606648
0.000806643586
0.000815651574
0.000830618274
0.000846905908
0.000861843159
0.000874490678
0.000884931436
0.000893578134
0.000900865825
0.000907153899
0.000912700074
0.000917669935
0.00092216171
0.000926230466
0.000929906003
0.000933204708
0.000936136979
0.000938711653
0.000940938549
0.000942829844
0.000944400906
0.000945670775
0.000946662452
0.000947403057
0.000947923816
0.000948259821
0.000787345739
0.000815276978
0.000811109079
0.000821853681
0.000838375814
0.000855903962
0.000871658739
0.000884676357
0.000895084834
0.000903373938
0.000910064017
0.000915593645
0.000920285734
0.000924355153
0.000927934917
0.000931102922
0.000933902521
0.000936356835
0.000938478202
0.000940274207
0.000941751469
0.000942917998
0.000943784765
0.000944366742
0.000944683611
0.000944760197
0.000944626613
0.00094431805
0.000787899536
0.000817167529
0.000814323719
0.000826423588
0.000844223543
0.000862837944
0.000879398274
0.000892913818
0.000903539172
0.000911815044
0.000918317398
0.000923535138
0.00092783189
0.000931453103
0.000934553568
0.000937225863
0.000939522512
0.000941471625
0.000943087451
0.000944377356
0.000945346332
0.000946000072
0.000946347114
0.000946400428
0.000945944717
0.000945257749
0.000944565265
0.00094390142
0.000788312155
0.000818570686
0.000816730983
0.000829903586
0.000848761403
0.000868321145
0.000885633391
0.000899673937
0.000910609072
0.000919015208
0.000925510555
0.000930622888
0.000934746986
0.000938151076
0.000941005458
0.000943412469
0.000945430017
0.000947088317
0.000948401407
0.000949374789
0.00095001061
0.000950295641
0.000949431969
0.000948456319
0.000947169165
0.000945862431
0.000944769907
0.000943927709
0.000788631579
0.000819652274
0.000818595082
0.000832629974
0.000852370339
0.000872753139
0.000890756971
0.000905320315
0.000916609058
0.000925222023
0.000931808673
0.00093692765
0.000940999497
0.000944311684
0.00094704762
0.000949317606
0.000951183396
0.000952675919
0.000953807547
0.000954580403
0.000954085485
0.000953056692
0.000951040534
0.00094910545
0.000947307106
0.000945700514
0.000944337834
0.000943265488
0.000788886529
0.000820511877
0.000820079692
0.000834818759
0.000855301645
0.000876402301
0.000895037396
0.000910108003
0.000921771841
0.000930639803
0.000937383154
0.000942584222
0.000946684497
0.000949987789
0.000952688968
0.000954905325
0.000956701801
0.000958109362
0.000958778724
0.000957998251
0.000956046576
0.000953716361
0.000951393977
0.000949145857
0.000947040542
0.000945146989
0.000943531595
0.000942254202
0.000789094887
0.000821211661
0.000821289371
0.000836612394
0.000857725934
0.000879455032
0.000898664307
0.000914219711
0.000926266669
0.000935421047
0.000942368614
0.000947709321
0.000951901243
0.000955261685
0.000957995242
0.000960225178
0.000962018946
0.00096242184
0.000961442128
0.000959063093
0.000956522598
0.000953891592
0.00095124448
0.000948660578
0.000946223814
0.000944020546
0.000942135556
0.000940646487
0.000789268215
0.000821791923
0.000822293015
0.000838107142
0.000859761556
0.000882043645
0.000901774889
0.000917789574
0.000930219204
0.000939680167
0.000946867496
0.00095239409
0.000956730993
0.00096020645
0.000963033134
0.000965339242
0.000965678946
0.000964372634
0.00096204149
0.000959422676
0.000956591679
0.000953626826
0.000950613249
0.000947644833
0.000944824007
0.000942259075
0.000940058924
0.000938325273
0.000789414246
0.000822279634
0.000823137255
0.000839369427
0.000861491981
0.000884263411
0.000904469739
0.000920917459
0.000933724103
0.000943504018
0.000950958029
0.000956708628
0.000961237036
0.000964880475
0.000967680904
0.000968388625
0.000967011559
0.000964913093
0.000962383413
0.000959501224
0.000956344633
0.000952998119
0.000949557544
0.000946133027
0.000942849206
0.000939842235
0.000937252974
0.000935216255
0.000789538298
0.00082269333
0.000823854388
0.000840445917
0.000862976868
0.000886183593
0.000906823131
0.000923678065
0.000936852805
0.000946958466
0.000954699581
0.000960705944
0.000965467123
0.000968864864
0.000970173724
0.000969215755
0.0009675651
0.000965326209
0.000962582525
0.000959409426
0.000955884577
0.000952096346
0.000948150485
0.000944174658
0.00094031989
0.000936757727
0.00093367185
0.000931243357
0.00078964411
0.000823046038
0.00082446722
0.000841369882
0.000864259276
0.000887854819
0.000908889964
0.000926127025
0.000939658679
0.000950092597
0.000958135889
0.00096442438
0.000968804466
0.000970861889
0.000970790285
0.000969829087
0.000968110426
0.000965728887
0.000962758605
0.000959267045
0.000955326903
0.000951026511
0.000946479117
0.000941830218
0.000937261514
0.000932989331
0.000929255089
0.000926293215
0.00078973437
0.000823347105
0.000824992129
0.000842165331
0.000865370491
0.000889314122
0.000910710564
0.000928305197
0.000942180649
0.000952941503
0.000961297104
0.000967144442
0.000970369093
0.00097148646
0.000971481018
0.00097053218
0.000968758909
0.000966241754
0.000963040171
0.000959207578
0.000954805105
0.000949914526
0.000944651466
0.000939177319
0.000933707932
0.000928515549
0.000923912449
0.000920225566
0.000789811054
0.000823603372
0.000825441061
0.000842849766
0.000866333331
0.000890588489
0.000912314173
0.000930241835
0.000944445794
0.000955528279
0.000963442403
0.000968337843
0.000970998478
0.00097224512
0.00097233182
0.000971423591
0.00096962303
0.000966991945
0.000963568761
0.000959384767
0.000954479797
0.000948918733
0.000942809922
0.000936324341
0.000929712651
0.000923314894
0.00091751836
0.000912851357
0.000789875655
0.000823819971
0.000825822897
0.000843436094
0.000867164487
0.000891697444
0.00091372156
0.000931956972
0.000946471355
0.000957152454
0.000964321175
0.000968954236
0.000971794422
0.000973203326
0.000973421728
0.000972598635
0.000970817229
0.000968115438
0.000964503328
0.000959979868
0.000954550067
0.000948245878
0.000941151468
0.000933433041
0.000925369851
0.000917346484
0.000909950065
0.000903899785
0.000789929347
0.00082400088
0.000826144409
0.000843933993
0.00086787625
0.000892655019
0.000914947033
0.000933440991
0.000947637235
0.00095776752
0.0009648992
0.000969744723
0.000972800026
0.000974416356
0.000974821492
0.000974147772
0.000972456522
0.00096975713
0.000966023199
0.000961208758
0.000955266456
0.000948171854
0.000939956516
0.00093075354
0.000920832407
0.000910652573
0.000901045139
0.00089299698
0.000789973099
0.000824149334
0.000826410965
0.000844350942
0.000868477838
0.000893471278
0.000915911849
0.000934218706
0.000948034329
0.000958281442
0.000965639257
0.000970730915
0.000974045818
0.000975926827
0.000976590328
0.000976152706
0.000974652599
0.000972067612
0.000968327515
0.00096332734
0.000956945153
0.000949067334
0.000939628875
0.000928677169
0.000916362783
0.000903346015
0.000890628007
0.000879607801
0.00079000777
0.000824268123
0.000826627067
0.000844693019
0.000868976431
0.000894031728
0.00091637683
0.000934462435
0.000948464078
0.000958932649
0.000966544862
0.000971921107
0.000975547246
0.000977760984
0.000978770633
0.000978679663
0.000977506147
0.000975195676
0.000971629599
0.000966631848
0.000959981011
0.000951431324
0.000940756054
0.000927734404
0.000912515088
0.00089569485
0.000878491081
0.000862821012
0.000790033765
0.00082435982
0.000826796773
0.000844938222
0.000869247656
0.000894261737
0.000916551501
0.000934797624
0.00094900068
0.000959711519
0.000967607111
0.000973308345
0.00097730145
0.000979923654
0.000981380714
0.000981769431
0.000981093833
0.000979273063
0.00097614213
0.000971448368
0.000964849474
0.000955920055
0.000944116103
0.000928923167
0.000909946105
0.000887800715
0.000863862138
0.00084065018
0.000790037432
0.000824398826
0.000826867496
0.000845026199
0.00086931838
0.000894375049
0.000916793013
0.000935209417
0.000949626765
0.000960598176
0.000968803748
0.000974868528
0.000979283835
0.000982392539
0.000984405768
0.000985423778
0.000985449074
0.000984388843
0.000982046313
0.000978101757
0.000972086014
0.00096335304
0.000950788778
0.00093309871
0.00090983103
0.000880700373
0.000846080363
0.000808947808
0.000790026038
0.000824389404
0.00082685998
0.000845033334
0.000869383919
0.000894534131
0.000917085095
0.000935677524
0.000950317486
0.000961562534
0.000970098743
0.000976559124
0.000981445266
0.00098511285
0.000987788382
0.000989589573
0.000990536856
0.000990551849
0.000989440107
0.000986854596
0.000982235278
0.000974505674
0.000961734357
0.000942349604
0.000914388135
0.00087572028
0.000824792498
0.000768491547
0.000790020019
0.000824378259
0.000826860673
0.000845067329
0.000869479038
0.000894723928
0.000917408113
0.00093617686
0.000951041199
0.000962565002
0.000971442854
0.000978319225
0.00098371097
0.000987993892
0.000991420782
0.000994143317
0.000996225048
0.000997640584
0.000998256488
0.000997786072
0.000995664799
0.000990214789
0.000979203885
0.00096038169
0.000929168399
0.000879414622
0.000806552819
0.000735878014
0.000790018358
0.000824379192
0.00082687766
0.000845119348
0.000869591289
0.000894927564
0.000917739772
0.000936678488
0.000951760749
0.000963558133
0.000972775586
0.000980071665
0.000985982402
0.000990909785
0.000995142521
0.000998881911
0.00100226057
0.00100534982
0.00100815222
0.00101057214
0.00101209657
0.00101076608
0.00100519732
0.000992350134
0.000965944461
0.00091536236
0.000830935069
0.000754679819
0.000754519973
0.000837736555
0.000885276459
0.000937745288
0.000987159428
0.0010295553
0.00106359866
0.001090169
0.00111085838
0.00112711672
0.00114008745
0.00115061377
0.00115929179
0.00116654174
0.00117266497
0.00117788163
0.00118235611
0.00118621449
0.00118955627
0.00119246218
0.00119499942
0.00119722522
0.00119918931
0.00120093547
0.00120250273
0.00120392606
0.00120523688
0.00120646333
0.000771500877
0.000773525082
0.000758520267
0.000767400999
0.000789780517
0.000819504182
0.000851602481
0.000882848992
0.000911590152
0.000937132816
0.000959370841
0.000978540664
0.000995019154
0.00100919997
0.00102144088
0.00103204735
0.00104127213
0.00104932192
0.00105636628
0.00106254591
0.00106797957
0.00107276929
0.00107700434
0.00108076408
0.00108412002
0.00108713725
0.00108987534
0.00109238892
0.000791453003
0.000787119674
0.00074790796
0.000730791362
0.000728394432
0.000736328579
0.000750599345
0.000768063138
0.000786664474
0.00080510993
0.000822613749
0.000838768805
0.000853427504
0.000866594465
0.000878353692
0.000888824633
0.000898136258
0.000906413223
0.000913769993
0.000920309397
0.000926123275
0.000931293935
0.000935895785
0.00093999684
0.000943659975
0.000946943885
0.000949903763
0.000952591702
0.000801363411
0.000808448718
0.000768049572
0.00074458117
0.000732833706
0.000729874883
0.000733012567
0.000739977458
0.000749196586
0.000759599622
0.000770431894
0.000781182644
0.000791532697
0.000801297977
0.000810384729
0.000818758578
0.000826422478
0.000833401203
0.00083973127
0.000845454866
0.000850616382
0.00085526056
0.000859431635
0.000863173043
0.000866527445
0.00086953685
0.000872242757
0.000874686209
0.000805280927
0.000820722369
0.000784165333
0.000761964944
0.000749418721
0.000743737387
0.000742668526
0.000744519877
0.000748234816
0.000753148648
0.000758791095
0.000764817084
0.000770977537
0.000777093795
0.000783038978
0.000788726096
0.000794098898
0.000799124087
0.00080378512
0.000808077575
0.000812005773
0.000815580369
0.000818816684
0.000821733614
0.000824352926
0.000826698836
0.000828797721
0.000830677899
0.000807381572
0.000827651715
0.000794250287
0.000774201503
0.000763068562
0.000757937474
0.000756453348
0.000756992615
0.000758674873
0.000761055853
0.000763886563
0.000767010057
0.000770316518
0.000773718792
0.000777142248
0.000780522892
0.000783807527
0.000786953555
0.000789928309
0.000792708131
0.000795277327
0.000797627121
0.000799754719
0.000801662538
0.000803357596
0.000804851056
0.000806157874
0.0008072965
0.000808665356
0.000831925592
0.000800746043
0.000782415631
0.000772682521
0.000768636466
0.000767824519
0.000768562159
0.000769969896
0.000771651785
0.000773440039
0.00077527315
0.000777133297
0.000779011601
0.000780894309
0.000782761063
0.000784587276
0.000786347003
0.000788015345
0.000789570194
0.000790993309
0.000792270883
0.000793393782
0.000794357592
0.000795162556
0.000795813468
0.000796319523
0.000796694129
0.000809510596
0.000834771229
0.000805189381
0.000788183865
0.000779581911
0.000776502916
0.000776455673
0.000777717435
0.000779395475
0.000781099797
0.000782683887
0.000784119402
0.000785427463
0.00078663826
0.000787773631
0.000788843375
0.000789846863
0.000790776046
0.000791618545
0.000792360308
0.000792987668
0.000793488835
0.000793854966
0.000794080901
0.000794165662
0.000794112757
0.000793930313
0.000793631056
0.000810110324
0.000836786889
0.000808382611
0.000792414158
0.000784733806
0.000782471766
0.000783113091
0.000784910861
0.000786965992
0.000788894629
0.000790562991
0.000791959575
0.000793124167
0.000794105408
0.000794942208
0.000795659434
0.000796269162
0.000796773545
0.000797167971
0.000797443953
0.000797591519
0.000797601114
0.000797465127
0.000797179072
0.000796742519
0.000796159746
0.000795440137
0.000794598302
0.000810557753
0.000838282987
0.000810770546
0.000795625152
0.000788706903
0.000787143657
0.000788397771
0.000790699713
0.00079314261
0.000795347274
0.000797191105
0.000798676576
0.000799857695
0.000800795917
0.000801540875
0.000802126006
0.000802569944
0.000802879584
0.000803053462
0.00080308488
0.000802964561
0.000802682878
0.000802231722
0.000801606096
0.000800805427
0.000799834594
0.000798704631
0.000797433029
0.000810904104
0.00083943586
0.000812617724
0.000798134965
0.000791852501
0.000790891546
0.000792692906
0.00079546486
0.000798289658
0.000800788543
0.000802846432
0.000804476853
0.000805745717
0.000806725362
0.000807474344
0.000808032801
0.000808423921
0.000808657219
0.000808732181
0.000808641672
0.000808374917
0.000807920088
0.000807266591
0.000806407107
0.000805234002
0.000803504755
0.000801776401
0.000800078897
0.000811180315
0.000840351571
0.000814087592
0.000800146475
0.000794398893
0.000793959545
0.000796250132
0.000799458278
0.000802653779
0.000805454784
0.000807749857
0.000809560123
0.000810960665
0.000812032739
0.000812842474
0.000813435726
0.000813839407
0.000814064793
0.000814111319
0.000813970208
0.000813627764
0.000813062569
0.000811301658
0.000809442195
0.000807403237
0.000804967038
0.000802714677
0.000800691582
0.000811405756
0.000841096392
0.000815284286
0.000801792636
0.000796499267
0.000796514054
0.000799242627
0.000802854209
0.000806405995
0.000809511004
0.000812058588
0.00081407454
0.000815640541
0.000816844738
0.000817759353
0.000818434905
0.000818901213
0.000819170566
0.000819241508
0.000819060937
0.000817451012
0.000815664389
0.000812758711
0.000809873914
0.000807067006
0.000804397543
0.000801925843
0.000799710087
0.000811593015
0.000841713342
0.000816276266
0.000803162752
0.000798258768
0.000798671332
0.000801793056
0.000805777252
0.000809669271
0.000813076158
0.000815886258
0.000818127961
0.000819887549
0.000821258356
0.000822317372
0.000823118754
0.000823694383
0.000824056736
0.000823161551
0.000821638903
0.000818686641
0.000815611284
0.000812469831
0.000809324579
0.000806243785
0.000803300848
0.000800571895
0.000798131724
0.000811750555
0.00084223126
0.000817109773
0.000804318112
0.000799750894
0.000800514011
0.000803989818
0.00080831822
0.000812533967
0.00081623803
0.000819316865
0.000821800193
0.000823777506
0.000825346158
0.000826586961
0.000827556909
0.000827879916
0.000826930583
0.000824640457
0.000821724833
0.00081858326
0.000815271582
0.000811852123
0.000808396091
0.000804984658
0.000801708156
0.000798662993
0.000795946059
0.000811884213
0.000842669987
0.000817816782
0.0008053016
0.000801027811
0.000802101549
0.000805897308
0.000810543949
0.000815067031
0.000819061896
0.000822412913
0.000825150446
0.000827366501
0.000829161868
0.000830620633
0.000830813224
0.000829856172
0.000827501543
0.000824761854
0.00082168708