/*--------------------------------*- C++ -*----------------------------------*\
| =========                 |                                                 |
| \\      /  F ield         | foam-extend: Open Source CFD                    |
|  \\    /   O peration     | Version:     4.1                                |
|   \\  /    A nd           | Web:         http://www.foam-extend.org         |
|    \\/     M anipulation  |                                                 |
\*---------------------------------------------------------------------------*/
FoamFile
{
    version     2.0;
    format      ascii;
    class       volVectorField;
    location    "0.2";
    object      U;
}
// * * * * * * * * * * * * * * * * * * * * * * * * * * * * * * * * * * * * * //

dimensions      [0 1 -1 0 0 0 0];

internalField   nonuniform List<vector> 
35840
(
(3.94086046 0.268528553 0.261844288)
(3.20795422 0.371831475 0.357379707)
(2.43829775 0.26650646 0.249860752)
(1.72035066 0.156944058 0.141978884)
(1.29367363 0.0888154801 0.077223862)
(1.05218986 0.0517227857 0.0439401051)
(0.893435731 0.0312023445 0.0270983163)
(0.78522966 0.0189899268 0.0180832045)
(0.711712071 0.0115173172 0.0131462027)
(0.660068817 0.00694090756 0.010423924)
(0.622094341 0.00408509428 0.00881588243)
(0.593123423 0.00225149203 0.00773736534)
(0.570371964 0.00104988184 0.0069170328)
(0.55208367 0.000252704565 0.00623302763)
(0.537124777 -0.000279300215 0.00563063827)
(0.524739248 -0.000632351488 0.00508628568)
(0.514397195 -0.000860313325 0.00458989637)
(0.505704955 -0.000998332871 0.00413600017)
(0.498364 -0.00106972179 0.0037207734)
(0.492133009 -0.00108938729 0.00334100772)
(0.486811766 -0.00106747267 0.00299365122)
(0.482230209 -0.00101150604 0.0026759799)
(0.47824115 -0.000927462172 0.00238575282)
(0.474715665 -0.000820348878 0.00212121537)
(0.471539993 -0.000694675246 0.0018810756)
(0.468613618 -0.0005547594 0.00166444623)
(0.465848168 -0.000404874643 0.00147075188)
(0.46316691 -0.000249266344 0.00129961672)
(4.52124976 0.409953148 0.33140002)
(4.20224658 0.63813638 0.509000389)
(3.63676421 0.543495003 0.407274954)
(2.94289609 0.391288142 0.261505889)
(2.41565435 0.267499477 0.152219604)
(2.06113442 0.181539566 0.0859719194)
(1.80860991 0.124030107 0.0502574687)
(1.62435372 0.0850624865 0.0317492859)
(1.49029696 0.0584560093 0.0220785953)
(1.39087806 0.0403145698 0.0169228265)
(1.31485912 0.0278633747 0.0140063759)
(1.25521476 0.0191916829 0.0121500186)
(1.20744708 0.0130527604 0.0108050774)
(1.16852645 0.00863651272 0.00973164852)
(1.13637519 0.00541265103 0.00882095585)
(1.10954056 0.0030343726 0.00802083024)
(1.08697141 0.00127418123 0.00730455417)
(1.06788095 -1.96661325e-05 0.00665658468)
(1.05165188 -0.000950095456 0.00606592456)
(1.03778927 -0.00158805115 0.00552351123)
(1.02588764 -0.00198408528 0.0050217566)
(1.01560522 -0.00217558663 0.00455468416)
(1.00664693 -0.00219180557 0.00411785431)
(0.998754763 -0.00205718206 0.00370811879)
(0.991701016 -0.00179354905 0.0033234791)
(0.98528379 -0.00142158515 0.00296295428)
(0.979324319 -0.000961655177 0.00262640108)
(0.973665616 -0.000434153424 0.00231427621)
(4.44213365 0.221361053 0.337952135)
(4.08278449 0.436515025 0.518819527)
(3.657138 0.463113707 0.418089824)
(3.13712503 0.408849866 0.275889759)
(2.71978813 0.331880766 0.166458985)
(2.4218297 0.25758601 0.0961063901)
(2.19811722 0.19565059 0.0564772827)
(2.0263812 0.147020841 0.035896997)
(1.89489442 0.109757276 0.0253592267)
(1.79250002 0.0816037533 0.0198226228)
(1.71064711 0.0604864087 0.0166923774)
(1.64391055 0.0446538382 0.014654154)
(1.588745 0.0327294362 0.013109916)
(1.54264593 0.0236775762 0.0118208127)
(1.50379407 0.0167425455 0.0106946817)
(1.47084251 0.0113868273 0.00969320552)
(1.44276277 0.00723422032 0.00879737443)
(1.41874519 0.00402296896 0.00799401434)
(1.3981352 0.00157021163 0.00727093524)
(1.38039339 -0.000253944518 0.00661621981)
(1.36506114 -0.00154362856 0.00601864639)
(1.35174656 -0.00236953234 0.00546830943)
(1.34010726 -0.00278727613 0.004957109)
(1.32984017 -0.00284376789 0.00447881948)
(1.32067465 -0.00258163683 0.00402900777)
(1.31236799 -0.00204217611 0.00360489003)
(1.30470276 -0.00126714078 0.00320511146)
(1.29748546 -0.000299596686 0.00282944465)
(4.41370728 0.123369452 0.337929411)
(3.97527148 0.285994291 0.516843911)
(3.52614162 0.346939263 0.410945637)
(3.04826422 0.341757235 0.267056854)
(2.69650214 0.30471838 0.158689159)
(2.46049476 0.256405272 0.0893130428)
(2.28810773 0.208510985 0.0503504369)
(2.15602287 0.166218273 0.0306503254)
(2.05358981 0.130806407 0.0211790974)
(1.97174059 0.101954402 0.0166861848)
(1.903988 0.0788136109 0.0144697313)
(1.84663655 0.06040783 0.0131723229)
(1.79752479 0.0458101188 0.0121845232)
(1.75519789 0.0342207104 0.0112865042)
(1.71859302 0.0249911834 0.0104215198)
(1.68688924 0.0176194941 0.00958730866)
(1.65941497 0.0117295576 0.00879480297)
(1.63559831 0.00704563738 0.00805342426)
(1.61494205 0.00336768898 0.00736692548)
(1.59700868 0.000550704984 0.00673391226)
(1.58140887 -0.00151206132 0.00614968499)
(1.56779342 -0.00290186733 0.00560838301)
(1.55584648 -0.00368355145 0.00510391662)
(1.54528032 -0.00391300889 0.00463078598)
(1.53583174 -0.00364288355 0.00418456919)
(1.52725975 -0.00292654649 0.00376212414)
(1.51934456 -0.0018206399 0.00336159994)
(1.51188748 -0.0003863203 0.00298230702)
(4.40562814 0.0838873416 0.338530562)
(3.92709242 0.205872794 0.518668069)
(3.43457934 0.264636549 0.409526683)
(2.9427324 0.27463887 0.261034758)
(2.60542221 0.257663032 0.150312246)
(2.39687024 0.227954659 0.0806008921)
(2.25545399 0.194188806 0.042148279)
(2.15328834 0.161445742 0.0232708435)
(2.07739939 0.132006743 0.0147420794)
(2.01794077 0.10652257 0.0111892242)
(1.96850879 0.0849224033 0.00984792276)
(1.92585286 0.0668458453 0.00933382865)
(1.88838932 0.0518310035 0.00902166702)
(1.85525308 0.0394093691 0.00868727278)
(1.82591275 0.0291556879 0.00828158332)
(1.79999125 0.0207101347 0.00781656791)
(1.77717004 0.0137828971 0.00731908539)
(1.75714927 0.00814875811 0.0068137402)
(1.73963712 0.003637002 0.00631758565)
(1.72434852 0.000120087509 0.00584003711)
(1.71100827 -0.0024979535 0.00538500204)
(1.69935041 -0.00429114013 0.0049532307)
(1.68911995 -0.00531980793 0.00454342996)
(1.68007329 -0.00563792106 0.00415344421)
(1.67197875 -0.00529902696 0.00378108482)
(1.66461758 -0.00436078436 0.00342459794)
(1.65778535 -0.00288807654 0.00308290453)
(1.65129377 -0.000954632651 0.00275568188)
(4.40178161 0.0613579605 0.339165019)
(3.90241607 0.153224469 0.520514297)
(3.38073901 0.204410202 0.410099575)
(2.86920865 0.221078362 0.258748785)
(2.52749675 0.215741544 0.145980309)
(2.32476009 0.198070013 0.0755302914)
(2.19487704 0.174614664 0.0370226402)
(2.10721955 0.149757771 0.0183403644)
(2.04671081 0.125937118 0.010116919)
(2.00214966 0.10422025 0.00691340606)
(1.96644743 0.0849519184 0.00592980244)
(1.9360636 0.0681354771 0.00577162663)
(1.90935137 0.0536148702 0.00580755777)
(1.88552114 0.0411688008 0.00580461658)
(1.86419173 0.0305635676 0.00570626158)
(1.84516429 0.0215816642 0.00552052229)
(1.82829766 0.0140353218 0.00527333648)
(1.81345313 0.0077708138 0.00499049078)
(1.80047742 0.00266723635 0.00469153677)
(1.78919959 -0.00136817613 0.00438897021)
(1.77943709 -0.00440646666 0.00409014721)
(1.77099574 -0.00650310444 0.0037988857)
(1.76367585 -0.00770501508 0.00351652721)
(1.75727518 -0.00805710966 0.00324308346)
(1.75159223 -0.00760801125 0.00297802949)
(1.74642964 -0.0064148271 0.00272077384)
(1.74159783 -0.00454667358 0.00247094145)
(1.73691897 -0.0020866255 0.00222853319)
(4.39956807 0.0466873191 0.339653959)
(3.88830183 0.117721213 0.521954655)
(3.34831189 0.161236559 0.41127038)
(2.82102318 0.180134913 0.258567027)
(2.47120071 0.181399496 0.14456443)
(2.26665507 0.171505474 0.0735018407)
(2.1392122 0.155395161 0.0347884984)
(2.05688888 0.136636817 0.0160503384)
(2.00340248 0.117472856 0.00782607147)
(1.96661983 0.099110523 0.00464340594)
(1.9388687 0.082124517 0.00368833494)
(1.91625446 0.0667428143 0.00357010725)
(1.89691541 0.0530083228 0.00366446598)
(1.87994731 0.0408701082 0.00373929189)
(1.86492756 0.0302360935 0.00373426662)
(1.85166444 0.0210031877 0.00365247517)
(1.84005249 0.0130739122 0.00351526913)
(1.83000278 0.00636472837 0.00334470877)
(1.82141562 0.000809046892 0.00315761554)
(1.81417251 -0.0036439838 0.00296491196)
(1.80813564 -0.0070322706 0.00277322593)
(1.80314861 -0.00938497574 0.00258595195)
(1.79904083 -0.0107286114 0.00240434643)
(1.79563083 -0.0110929102 0.00222852022)
(1.79273037 -0.0105164652 0.00205806374)
(1.79014914 -0.00905181574 0.00189241034)
(1.78770001 -0.00676941723 0.00173105264)
(1.78520495 -0.00375991957 0.00157367593)
(4.39821708 0.036646787 0.340043652)
(3.87961375 0.0929765974 0.523110993)
(3.32761648 0.129552003 0.412497387)
(2.78859866 0.148161973 0.259134761)
(2.43112011 0.152906723 0.144409928)
(2.22286981 0.148062895 0.0729524358)
(2.09460672 0.137237486 0.0341048641)
(2.01358398 0.123206312 0.0153206591)
(1.96282631 0.10787706 0.00706026082)
(1.92962983 0.0924299815 0.00383070882)
(1.90594236 0.0775434677 0.00281419648)
(1.88762372 0.0635819021 0.00262804227)
(1.87264493 0.0507228295 0.0026601946)
(1.8599886 0.0390375686 0.00268669656)
(1.84916082 0.0285404734 0.00265022238)
(1.83993036 0.0192187694 0.00255374025)
(1.83217507 0.0110505751 0.00241696597)
(1.82580466 0.00401534829 0.00225967515)
(1.82072666 -0.00190112288 0.0020963136)
(1.81683523 -0.00670568233 0.00193595216)
(1.81400308 -0.0103985739 0.00178363497)
(1.81208319 -0.0129773384 0.00164137381)
(1.81090973 -0.0144421573 0.00150939583)
(1.81030073 -0.0148017217 0.00138702349)
(1.81006209 -0.0140794019 0.00127318355)
(1.80999298 -0.0123190925 0.00116668746)
(1.80989257 -0.00958995296 0.00106635551)
(1.80956787 -0.00598922234 0.000971097941)
(4.39732324 0.0293723599 0.34035048)
(3.87389142 0.0747963678 0.524007365)
(3.31373262 0.105405529 0.413538264)
(2.76609389 0.122602018 0.259835077)
(2.40219269 0.128960293 0.144690673)
(2.19003198 0.127292124 0.0729995757)
(2.05985693 0.120172057 0.0340859011)
(1.97847612 0.109708215 0.0152916802)
(1.92847907 0.0974557876 0.0070185012)
(1.89678278 0.0844772726 0.00375781215)
(1.87507068 0.0714617367 0.00268920208)
(1.85902942 0.0588380556 0.00243524343)
(1.84651299 0.0468657015 0.00239348909)
(1.83642339 0.0356995848 0.00234833406)
(1.8282123 0.0254324366 0.0022474913)
(1.8216135 0.0161221126 0.00209635983)
(1.81648428 0.00780939921 0.00191546825)
(1.81272354 0.00052925523 0.00172439716)
(1.81023498 -0.00568334487 0.00153702897)
(1.80891013 -0.0107905898 0.00136181375)
(1.8086203 -0.0147523552 0.00120291082)
(1.80921413 -0.0175300261 0.00106155941)
(1.81051694 -0.0190917603 0.000937363788)
(1.81233242 -0.0194191458 0.000829096197)
(1.81444633 -0.0185147277 0.000735165857)
(1.8166326 -0.01640936 0.000653870788)
(1.81866171 -0.0131682807 0.000583434124)
(1.82031101 -0.00889489995 0.000522031171)
(4.39669859 0.0238582068 0.340588025)
(3.86993214 0.0609007338 0.524694078)
(3.30404499 0.0864899845 0.414373164)
(2.75002109 0.101832167 0.260487233)
(2.38090576 0.108657936 0.145090783)
(2.1651282 0.108842347 0.0732542708)
(2.03273568 0.104209823 0.0343020639)
(1.95029823 0.096339547 0.0155088728)
(1.90013116 0.0864660498 0.00723578312)
(1.86889248 0.075498284 0.00396189372)
(1.84807212 0.0640792885 0.00286373881)
(1.83322333 0.0526497222 0.00256601614)
(1.82210895 0.041508324 0.00247184658)
(1.81356933 0.0308606773 0.00237124344)
(1.80701549 0.0208533951 0.00221585142)
(1.80215579 0.0115974904 0.00201341935)
(1.79883309 0.00318468533 0.00178575933)
(1.79693903 -0.00430182241 0.00155305625)
(1.79637433 -0.010780786 0.00132964992)
(1.79702821 -0.0161696654 0.00112407668)
(1.7987685 -0.0203854801 0.000940365751)
(1.80143591 -0.0233485736 0.00077969544)
(1.80484153 -0.0249887946 0.000641680457)
(1.80876728 -0.0252537575 0.000525131285)
(1.81296922 -0.0241184778 0.000428357088)
(1.8171842 -0.0215952469 0.000349396391)
(1.82114019 -0.0177422075 0.000286219434)
(1.82457011 -0.0126690501 0.000236764148)
(4.39624573 0.01953449 0.340771281)
(3.86708619 0.0499449923 0.525221978)
(3.29705054 0.071308066 0.415032699)
(2.73822235 0.0846788105 0.261042732)
(2.3649131 0.0912926961 0.145486129)
(2.14595438 0.0924304177 0.0735533107)
(2.01135353 0.0893854025 0.0345738836)
(1.92757175 0.0833300342 0.0157814107)
(1.87676204 0.0752272009 0.00751008985)
(1.84541211 0.0658298369 0.00423003624)
(1.82487427 0.0557077284 0.00311524651)
(1.81059947 0.0452802983 0.00279120649)
(1.80027721 0.0348549235 0.00266403584)
(1.79269736 0.0246620914 0.00252698697)
(1.78723807 0.0148818946 0.00233406571)
(1.78358827 0.00566326251 0.00209446651)
(1.78158113 -0.0028619439 0.00183081836)
(1.78110562 -0.0105688079 0.00156397526)
(1.78206291 -0.0173325585 0.00130877595)
(1.78434356 -0.0230257745 0.00107389738)
(1.7878137 -0.0275193496 0.000863589925)
(1.79230647 -0.0306867307 0.000679363204)
(1.79761713 -0.0324116142 0.000521082973)
(1.80350115 -0.0325986639 0.000387742234)
(1.80967663 -0.0311864019 0.00027792566)
(1.81583153 -0.0281610166 0.000189987242)
(1.82163663 -0.0235690904 0.000122101187)
(1.82676377 -0.0175266763 7.22172856e-05)
(4.39590679 0.0160524662 0.340913073)
(3.86497153 0.0410853394 0.525630679)
(3.29184213 0.0588659016 0.41555217)
(2.72933029 0.0703077384 0.261499245)
(2.35263995 0.076329892 0.145835979)
(2.13093953 0.0778277336 0.0738371439)
(1.9942656 0.075722177 0.0348369898)
(1.90904595 0.0708791604 0.0160426212)
(1.85734653 0.0640406302 0.00777068396)
(1.82554943 0.0558165858 0.00448534249)
(1.80491458 0.0466944749 0.00335891483)
(1.79081906 0.0370541282 0.00301731318)
(1.78089628 0.027191274 0.00286838419)
(1.77389655 0.0173423887 0.00270720648)
(1.76917241 0.00770491271 0.00248904467)
(1.76639869 -0.0015472915 0.00222375187)
(1.76540356 -0.0102516603 0.00193444916)
(1.76607788 -0.0182472951 0.00164244254)
(1.76832839 -0.025368506 0.00136263379)
(1.77205119 -0.0314421506 0.00110381206)
(1.77711452 -0.0362885723 0.000870421991)
(1.78334639 -0.0397267309 0.000664239366)
(1.79052588 -0.0415838046 0.00048548593)
(1.79837821 -0.0417092053 0.00033362178)
(1.8065751 -0.0399923049 0.000207735034)
(1.81474213 -0.0363822024 0.000106681516)
(1.82247447 -0.0309068239 2.90711599e-05)
(1.8293611 -0.0236876056 -2.68474015e-05)
(4.39564577 0.0131894114 0.34102365)
(3.86335282 0.0337775061 0.525950584)
(3.28785141 0.0484987538 0.41596384)
(2.72245519 0.0581276071 0.261870806)
(2.34301208 0.0633615549 0.146133532)
(2.11895967 0.0648372068 0.0740881196)
(1.98038801 0.0632136377 0.0350718193)
(1.89373131 0.059128372 0.0162736947)
(1.84101598 0.0531473087 0.00799883284)
(1.8085633 0.0457557391 0.00470763462)
(1.78757542 0.0373593567 0.00357140905)
(1.77338009 0.0282895281 0.00321641085)
(1.76357165 0.0188175847 0.00305159468)
(1.75687259 0.00917251508 0.00287309171)
(1.75261845 -0.000443623717 0.00263675217)
(1.75047672 -0.00984290039 0.00235281603)
(1.75027736 -0.018840242 0.00204472522)
(1.75191966 -0.0272441989 0.00173373786)
(1.75532246 -0.0348504897 0.00143460569)
(1.76039431 -0.0414386851 0.00115612167)
(1.76701206 -0.0467729558 0.000902854794)
(1.77500362 -0.0506079168 0.00067680915)
(1.78413394 -0.052700419 0.000478573703)
(1.79409528 -0.0528277601 0.000308115026)
(1.80450387 -0.0508119068 0.000165129342)
(1.81490619 -0.0465479398 4.91653377e-05)
(1.82479746 -0.0400331056 -4.04532885e-05)
(1.83365369 -0.0313908975 -0.000104863612)
(4.39543939 0.0107982743 0.341110997)
(3.86207917 0.0276593521 0.526204693)
(3.28470966 0.039751367 0.416293984)
(2.71700364 0.0477128721 0.262174124)
(2.33528613 0.0520737188 0.146383434)
(2.10920657 0.0532891715 0.0743042412)
(1.96891167 0.051831862 0.0352754139)
(1.88086039 0.0481690766 0.0164729308)
(1.82706791 0.0427274951 0.00819400245)
(1.79382431 0.0358860912 0.00489669106)
(1.77229898 0.0279738635 0.00375174144)
(1.75779002 0.0192703929 0.00338571525)
(1.7478678 0.010014805 0.00320831658)
(1.74123861 0.000418696665 0.00301624881)
(1.73723031 -0.00932156367 0.00276576566)
(1.73551212 -0.0190132661 0.00246744507)
(1.73592437 -0.0284566038 0.00214461955)
(1.7383836 -0.0374352347 0.00181819681)
(1.74283063 -0.0457086351 0.00150273387)
(1.74919723 -0.0530073681 0.00120693387)
(1.75737964 -0.0590327828 0.000935396381)
(1.76721508 -0.0634628549 0.00069029437)
(1.77846045 -0.0659659185 0.000472548748)
(1.79077499 -0.0662237429 0.000282644554)
(1.80371048 -0.063964288 0.00012102177)
(1.81671399 -0.059002555 -1.18247562e-05)
(1.82914841 -0.0512849601 -0.000115504482)
(1.8403343 -0.0409290482 -0.000190134546)
(4.39527213 0.00877905929 0.341181202)
(3.86105056 0.0224830838 0.526410157)
(3.2821707 0.0323054817 0.416562914)
(2.71257147 0.0387546201 0.262424234)
(2.32894122 0.0422260441 0.146593525)
(2.10109576 0.0430420486 0.0744891792)
(1.9592328 0.0415396507 0.0354507311)
(1.86984242 0.0380582021 0.0166441076)
(1.81494416 0.0329140871 0.00836090184)
(1.78081553 0.0263963032 0.00505773647)
(1.75861027 0.0187636387 0.0039050712)
(1.74361157 0.0102433898 0.00352971748)
(1.73337805 0.00103733606 0.00334184912)
(1.72661008 -0.00866815345 0.00313865393)
(1.72263784 -0.0186910928 0.00287685708)
(1.72114197 -0.0288428953 0.00256695332)
(1.7219831 -0.0389173937 0.00223179367)
(1.72510667 -0.0486798799 0.00189192652)
(1.73048925 -0.0578570351 0.00156165423)
(1.73810134 -0.066129396 0.00124949498)
(1.74787526 -0.0731283955 0.00095994601)
(1.75967371 -0.0784406458 0.000695228093)
(1.77325828 -0.0816225511 0.000456544086)
(1.78826055 -0.0822283225 0.000244934939)
(1.80416089 -0.0798533615 6.17491821e-05)
(1.82028328 -0.0741924202 -9.12309669e-05)
(1.83581528 -0.0651073279 -0.000212017639)
(1.84986156 -0.0526926851 -0.000299055214)
(4.39513338 0.00706209136 0.341238841)
(3.86019901 0.0180752552 0.526579672)
(3.28006646 0.0259348024 0.416785983)
(2.70887862 0.0310268695 0.26263345)
(2.32360832 0.0336353541 0.146771667)
(2.09420236 0.0339808825 0.0746480732)
(1.95090085 0.0322992156 0.0356022758)
(1.86022496 0.0288321118 0.0167920936)
(1.80420606 0.0238077247 0.00850490874)
(1.76911993 0.0174386019 0.00519645722)
(1.74611555 0.00991961079 0.00403705903)
(1.73047123 0.0014261471 0.00365367058)
(1.71974283 -0.00788138108 0.00345696822)
(1.71263391 -0.0178483527 0.00324482953)
(1.70848591 -0.0283156006 0.00297399871)
(1.70700003 -0.0391084341 0.00265444384)
(1.7080685 -0.0500242078 0.00230855109)
(1.71167984 -0.0608184993 0.00195651234)
(1.71786384 -0.0711911429 0.00161224302)
(1.72665109 -0.0807738164 0.00128388842)
(1.73803451 -0.0891218589 0.000975683053)
(1.75192807 -0.0957141744 0.000689747042)
(1.76812141 -0.0999661871 0.000427453346)
(1.78623339 -0.101261535 0.000190402652)
(1.8056719 -0.0990075869 -1.89537197e-05)
(1.82561212 -0.0927169348 -0.000197065833)
(1.84500981 -0.0821102711 -0.000339518506)
(1.86266674 -0.067225303 -0.00044202308)
(4.39501576 0.00559779941 0.341287312)
(3.85947748 0.0143120393 0.526722573)
(3.2782803 0.0204758831 0.416974632)
(2.70572865 0.0243629334 0.26281138)
(2.31902406 0.0261624449 0.146924608)
(2.08821696 0.0260146233 0.0747858513)
(1.94358065 0.0240775081 0.0357344336)
(1.85166419 0.0205169246 0.0169213559)
(1.79451312 0.0154893467 0.00863067525)
(1.75840678 0.00914162948 0.00531755122)
(1.73449529 0.00160988597 0.00415218968)
(1.71805782 -0.00698221451 0.00376187118)
(1.70665411 -0.0165188811 0.00355814782)
(1.69899744 -0.0268836782 0.00333908357)
(1.69444707 -0.0379497042 0.00306093559)
(1.69273337 -0.0495676762 0.00273319845)
(1.69379169 -0.0615509668 0.00237788133)
(1.69766939 -0.0736578794 0.00201465004)
(1.70447092 -0.0855718828 0.00165683453)
(1.71431479 -0.0968815727 0.00131201341)
(1.72728902 -0.107063514 0.00098393128)
(1.74339811 -0.115473058 0.00067437538)
(1.76249932 -0.121350604 0.00038468999)
(1.78423058 -0.123853012 0.000116965762)
(1.80793891 -0.122120753 -0.000125040989)
(1.83262723 -0.115389118 -0.000335349948)
(1.85694699 -0.103142859 -0.000505840119)
(1.87927026 -0.0852972579 -0.000627838112)
(4.3949141 0.00435021225 0.341329106)
(3.85885316 0.011103347 0.526845666)
(3.27673065 0.0158088054 0.417137267)
(2.70298304 0.0186386815 0.26296529)
(2.31500044 0.0197015679 0.147057734)
(2.08291524 0.0190725725 0.0749066588)
(1.93702522 0.0168485374 0.0358509007)
(1.84390266 0.0131349353 0.0170355107)
(1.7856063 0.00802897741 0.00874175818)
(1.74842014 0.0016200142 0.00542434611)
(1.72349716 -0.00601087451 0.00425367443)
(1.70612059 -0.0147913697 0.00385794268)
(1.69385724 -0.0246536023 0.00364899009)
(1.68543279 -0.0355267707 0.00342449575)
(1.68022856 -0.0473271943 0.00314036509)
(1.67801073 -0.0599448639 0.00280576786)
(1.67876835 -0.0732257049 0.00244216087)
(1.68262395 -0.0869488723 0.00206851301)
(1.68978097 -0.100799255 0.00169737344)
(1.70048076 -0.11433648 0.00133550504)
(1.71495292 -0.126963548 0.00098585748)
(1.73335004 -0.137901296 0.000649546961)
(1.75566105 -0.146179024 0.00032757138)
(1.78160279 -0.150656589 2.23366137e-05)
(1.81049869 -0.150097662 -0.000260899808)
(1.84116822 -0.143314829 -0.00051285599)
(1.87186932 -0.129397738 -0.000719900896)
(1.9003614 -0.108013889 -0.000866100405)
(4.39482476 0.00329265154 0.341366011)
(3.85830311 0.00838223025 0.526953839)
(3.2753606 0.0118439066 0.417279969)
(2.7005447 0.013760331 0.263100527)
(2.31140454 0.0141718184 0.147175135)
(2.07813707 0.0131002439 0.075013725)
(1.93105656 0.0105933476 0.0359545265)
(1.83675317 0.0067077677 0.0171371951)
(1.77729546 0.00149067895 0.00884048148)
(1.73896994 -0.00502005065 0.00551904655)
(1.71293219 -0.0127948372 0.00434433233)
(1.69446924 -0.0218124384 0.00394475813)
(1.68115355 -0.0320571417 0.00373179173)
(1.67172263 -0.0435121224 0.00350297897)
(1.66558062 -0.0561492695 0.00321405484)
(1.66253264 -0.0699148365 0.00287372189)
(1.66262894 -0.0847089974 0.00250274089)
(1.66608193 -0.100357712 0.00211920978)
(1.67321994 -0.116575884 0.00173466936)
(1.68444799 -0.13292179 0.00135476011)
(1.70019738 -0.148744969 0.00098124346)
(1.72085003 -0.163133904 0.000614113262)
(1.74662599 -0.174876258 0.000253585236)
(1.77742679 -0.182453903 -9.78648055e-05)
(1.81263829 -0.184105913 -0.000433174279)
(1.85091954 -0.178002771 -0.000738558351)
(1.89003632 -0.162571493 -0.000992021707)
(1.92687437 -0.136990477 -0.00116530099)
(4.39474525 0.00240476036 0.341399278)
(3.85781163 0.00609751528 0.527050511)
(3.27413117 0.00851230418 0.41740702)
(2.69834706 0.00965522297 0.263220904)
(2.30814497 0.00950989209 0.147279773)
(2.07377215 0.00805490068 0.0751093932)
(1.9255521 0.00529837714 0.036047267)
(1.83008695 0.00125664849 0.0172279347)
(1.76944988 -0.00406628338 0.0089282252)
(1.72992702 -0.0106781836 0.00560384812)
(1.70267347 -0.0185974474 0.00442649747)
(1.68297523 -0.0278544895 0.00402400564)
(1.66840569 -0.0384901392 0.00380784806)
(1.65770958 -0.0505499288 0.00357564817)
(1.65030961 -0.064075011 0.00328286317)
(1.64604742 -0.0790879944 0.00293760682)
(1.64503614 -0.0955708749 0.0025598012)
(1.64758797 -0.113432114 0.0021664721)
(1.65417938 -0.132459886 0.00176785967)
(1.66542319 -0.152258995 0.00136808335)
(1.68202535 -0.172170931 0.000967225297)
(1.70470661 -0.1911811 0.000563601581)
(1.73406655 -0.207826287 0.000156132923)
(1.7703693 -0.220130983 -0.000252852575)
(1.81323762 -0.225623196 -0.00065388729)
(1.86127262 -0.221510568 -0.00102680246)
(1.91167759 -0.205112773 -0.0013346748)
(1.96009079 -0.174654657 -0.00152668925)
(4.3946739 0.00167036744 0.34142973)
(3.85736831 0.00420847207 0.527137974)
(3.27301678 0.00575886237 0.417521315)
(2.69634664 0.00626459884 0.263329008)
(2.30516248 0.00566384913 0.147373657)
(2.06974992 0.00390105866 0.0751951548)
(1.92043472 0.000952305486 0.0361300298)
(1.82382444 -0.00320018837 0.0173084442)
(1.76199269 -0.00858841279 0.00900673329)
(1.72122055 -0.0152598141 0.00568072685)
(1.6926555 -0.0232781173 0.00450142326)
(1.6715752 -0.032725492 0.00409655973)
(1.65554576 -0.0437024063 0.00387784559)
(1.64330948 -0.0563245051 0.00364290376)
(1.63429691 -0.0707162093 0.00334680705)
(1.62837571 -0.0869987693 0.00299695427)
(1.62571424 -0.105269023 0.00261223962)
(1.62672412 -0.125564224 0.00220832485)
(1.63204431 -0.147807219 0.00179371835)
(1.64253548 -0.171725389 0.0013704578)
(1.65925904 -0.196737157 0.000936310631)
(1.68341286 -0.221803405 0.000487311926)
(1.71618706 -0.245251365 2.07481626e-05)
(1.7584936 -0.264600126 -0.000460944343)
(1.81051774 -0.276455151 -0.000944716222)
(1.87108273 -0.276611529 -0.00140105887)
(1.9368618 -0.260550705 -0.00176679627)
(2.00178361 -0.224670249 -0.00195275656)
(4.39460968 0.00107588703 0.341457862)
(3.85696685 0.0026808175 0.527217645)
(3.2720022 0.00353678826 0.417624664)
(2.69451795 0.00353779883 0.26342645)
(2.30242344 0.00258780132 0.147457954)
(2.06603197 0.000605653594 0.0752714922)
(1.91566439 -0.00245899465 0.0362030202)
(1.81792961 -0.00665088667 0.0173801808)
(1.75489722 -0.0120304434 0.00907775349)
(1.71283503 -0.0186800231 0.0057506368)
(1.68287459 -0.0267051547 0.00456970953)
(1.66027578 -0.0362376453 0.00416284796)
(1.6425854 -0.0474385717 0.00394194103)
(1.62852806 -0.0604992426 0.00370451464)
(1.61752373 -0.0756395918 0.00340514089)
(1.60944494 -0.0931015451 0.00305031173)
(1.6044936 -0.113132854 0.00265756777)
(1.60316293 -0.135955059 0.00224068878)
(1.60624942 -0.161706599 0.00180571531)
(1.61488435 -0.190348719 0.00135166659)
(1.63055853 -0.221518626 0.000872957123)
(1.6551054 -0.254313623 0.000362613799)
(1.69058744 -0.286996325 -0.000183257565)
(1.7390003 -0.316633146 -0.000759057738)
(1.8016703 -0.338733834 -0.00134020855)
(1.87827878 -0.347095644 -0.00187778012)
(1.96528938 -0.334144558 -0.00226309237)
(2.05451471 -0.29274727 -0.00237948777)
(4.39455204 0.00060900575 0.341483926)
(3.85660413 0.00148361797 0.527290281)
(3.27108021 0.00180343661 0.417718043)
(2.69284981 0.00142765469 0.263514008)
(2.29991449 0.00023687807 0.147532882)
(2.06260508 -0.00186783181 0.0753383418)
(1.91123312 -0.00495682781 0.0362675057)
(1.81240606 -0.00909343644 0.0174447771)
(1.74818203 -0.0143608757 0.00914202387)
(1.70480741 -0.0208707206 0.00581398259)
(1.67338922 -0.0287641605 0.00463161881)
(1.64915815 -0.0382177497 0.00422290877)
(1.62962615 -0.0494505169 0.00399984861)
(1.61347953 -0.0627304412 0.00375975865)
(1.60010081 -0.0783801527 0.00345651716)
(1.58933356 -0.0967796396 0.00309536325)
(1.5813727 -0.118361313 0.00269189609)
(1.57674912 -0.143590039 0.00225707634)
(1.57637764 -0.172916232 0.00179307659)
(1.58164325 -0.206683147 0.00129397443)
(1.59450377 -0.244960261 0.000748527564)
(1.61757431 -0.287264265 0.000144747632)
(1.65412351 -0.332122447 -0.00052257485)
(1.70784792 -0.376440869 -0.00123800003)
(1.78222522 -0.41472489 -0.00194354225)
(1.87913391 -0.438236397 -0.00252868408)
(1.99597927 -0.434595472 -0.00274695563)
(2.12272088 -0.389659185 -0.00250718751)
(4.39450098 0.000257441427 0.34150814)
(3.85627982 0.000586755757 0.527356277)
(3.27025015 0.000517331765 0.417801782)
(2.69134192 -0.000114050967 0.263591574)
(2.29763727 -0.00143794883 0.14759836)
(2.05947719 -0.00356348804 0.0753968081)
(1.90716126 -0.00657275962 0.0363250856)
(1.80729069 -0.0105414968 0.0175027898)
(1.74190525 -0.0155696272 0.00919979022)
(1.69722336 -0.02178969 0.00587088157)
(1.66431875 -0.0293698522 0.0046870972)
(1.63838033 -0.0385228156 0.00427646748)
(1.61686756 -0.0495174802 0.00405100451)
(1.59840373 -0.0626921378 0.0038076453)
(1.58229941 -0.0784698625 0.00349925217)
(1.56832201 -0.0973748707 0.00312923612)
(1.55659699 -0.120046291 0.00271025175)
(1.54761417 -0.147242637 0.00224876047)
(1.54231584 -0.179824222 0.00174039699)
(1.54225265 -0.218689914 0.00117034448)
(1.54980056 -0.264626791 0.000516447719)
(1.56841847 -0.31800423 -0.000244273974)
(1.60288114 -0.378206331 -0.00112319964)
(1.65934103 -0.442696153 -0.00209433122)
(1.74495276 -0.50560771 -0.00306607577)
(1.86641028 -0.55566107 -0.00384885267)
(2.02558744 -0.574214242 -0.00390469164)
(2.21459948 -0.533793416 -0.00326973904)
(4.39445743 9.62754631e-06 0.34153127)
(3.85599706 -4.02169444e-05 0.527416327)
(3.26951624 -0.000365777316 0.417875765)
(2.69000123 -0.00113993187 0.263659353)
(2.29560594 -0.00249249258 0.147655339)
(2.05667419 -0.00453493804 0.0754483471)
(1.90349074 -0.00735369563 0.0363761845)
(1.8026464 -0.0110311497 0.0175542977)
(1.73615822 -0.0156757323 0.00925100169)
(1.6902114 -0.0214309688 0.00592116282)
(1.65583841 -0.028480576 0.004735853)
(1.62817456 -0.0370602453 0.00432309925)
(1.60460939 -0.047473746 0.00409478628)
(1.58367701 -0.0601132179 0.00384720978)
(1.56457696 -0.0754855926 0.00353175521)
(1.54694282 -0.0942458923 0.00314914913)
(1.53074687 -0.11723675 0.0027075156)
(1.51631998 -0.145531218 0.00220595689)
(1.50447376 -0.180470227 0.00162862328)
(1.49672949 -0.223673513 0.000943751822)
(1.49567774 -0.276977187 0.000106297597)
(1.50549136 -0.342201426 -0.000932284452)
(1.53258286 -0.420557089 -0.00219934921)
(1.58631441 -0.511490222 -0.00366951795)
(1.67955117 -0.61034348 -0.00526845267)
(1.82780861 -0.704168388 -0.00683615068)
(2.04584549 -0.766802229 -0.00790080302)
(2.34155008 -0.742171599 -0.00908988527)
(4.39442135 -0.000145592334 0.341552655)
(3.85575716 -0.000429524813 0.527469452)
(3.26888425 -0.000895003866 0.417939603)
(2.6888412 -0.00170805318 0.263717719)
(2.29384415 -0.00299082057 0.147704575)
(2.05423335 -0.00484924229 0.0754931236)
(1.90027761 -0.00736703406 0.0364206396)
(1.79855495 -0.0106261358 0.0175990318)
(1.73105727 -0.0147345304 0.00929532702)
(1.68393335 -0.0198353999 0.00596445669)
(1.64816899 -0.0261138536 0.00477749954)
(1.6188372 -0.033810759 0.00436239707)
(1.59324348 -0.0432422381 0.00413073129)
(1.56980979 -0.0548259508 0.00387785669)
(1.54758735 -0.0691176827 0.00355312846)
(1.52601559 -0.0868617855 0.00315349224)
(1.50481741 -0.109059554 0.00268034263)
(1.48401381 -0.1370603 0.00212105089)
(1.4640549 -0.172678633 0.00143973274)
(1.44609489 -0.218334773 0.000571387106)
(1.43248205 -0.277194178 -0.000581215691)
(1.42758342 -0.353217798 -0.00213840751)
(1.43910735 -0.45099778 -0.0042155099)
(1.48011462 -0.574877434 -0.00689696842)
(1.57189654 -0.726265647 -0.0103184223)
(1.74499501 -0.896807427 -0.0144588159)
(2.04497267 -1.05269799 -0.0196053369)