/*--------------------------------*- C++ -*----------------------------------*\
| =========                 |                                                 |
| \\      /  F ield         | foam-extend: Open Source CFD                    |
|  \\    /   O peration     | Version:     4.1                                |
|   \\  /    A nd           | Web:         http://www.foam-extend.org         |
|    \\/     M anipulation  |                                                 |
\*---------------------------------------------------------------------------*/
FoamFile
{
    version     2.0;
    format      ascii;
    class       volVectorField;
    location    "0.2";
    object      U_0;
}
// * * * * * * * * * * * * * * * * * * * * * * * * * * * * * * * * * * * * * //

dimensions      [0 1 -1 0 0 0 0];

internalField   nonuniform List<vector> 
35840
(
(3.94086047 0.268528531 0.261844285)
(3.20795433 0.371831413 0.357379708)
(2.43829801 0.266506366 0.249860769)
(1.72035112 0.156943937 0.141978919)
(1.29367432 0.0888153317 0.0772239145)
(1.05219082 0.0517226045 0.0439401742)
(0.893437015 0.031202127 0.0270984015)
(0.785231341 0.0189896697 0.0180833022)
(0.711714238 0.0115170177 0.0131463059)
(0.66007158 0.0069405647 0.0104240249)
(0.622097824 0.00408470887 0.00881597519)
(0.593127756 0.00225106554 0.00773745031)
(0.570377272 0.00104941527 0.00691711842)
(0.552090053 0.000252198543 0.00623312835)
(0.53713231 -0.000279843354 0.00563076576)
(0.524747983 -0.0006329244 0.00508643483)
(0.514407194 -0.000860902797 0.00459003149)
(0.505716332 -0.000998928181 0.00413604884)
(0.498377013 -0.00107032609 0.00372063915)
(0.492148085 -0.00109003036 0.00334059955)
(0.486829528 -0.00106822514 0.00299292505)
(0.482251423 -0.00101247595 0.00267497993)
(0.478266592 -0.000928767121 0.00238463466)
(0.474745908 -0.000822066067 0.00212023878)
(0.471575144 -0.000696780835 0.00188056216)
(0.468653064 -0.000557075263 0.0016647076)
(0.465890387 -0.000407043367 0.0014720044)
(0.463209427 -0.00025077128 0.0013019035)
(4.52124977 0.409953091 0.331400019)
(4.20224666 0.638136192 0.509000385)
(3.63676449 0.543494679 0.407274965)
(2.94289669 0.391287681 0.261505935)
(2.41565536 0.267498875 0.152219693)
(2.06113592 0.181538802 0.0859720545)
(1.80861201 0.124029156 0.0502576493)
(1.62435657 0.0850613266 0.0317495101)
(1.49030072 0.0584546256 0.022078856)
(1.39088294 0.0403129578 0.0169231129)
(1.31486535 0.0278615407 0.0140066782)
(1.25522254 0.0191896398 0.0121503344)
(1.20745665 0.0130505169 0.010805416)
(1.16853799 0.00863406226 0.0097320317)
(1.13638887 0.00540996838 0.00882140679)
(1.10955655 0.00303142805 0.00802134989)
(1.08698995 0.00127097029 0.00730508932)
(1.06790238 -2.30942152e-05 0.00665700496)
(1.05167676 -0.000953628309 0.00606602517)
(1.03781833 -0.00159154541 0.00552305794)
(1.02592178 -0.00198744007 0.00502057819)
(1.01564533 -0.00217882931 0.0045527881)
(1.00669358 -0.0021951527 0.00411552478)
(0.998807928 -0.00206102554 0.00370595495)
(0.991759728 -0.00179834844 0.00332234108)
(0.985345979 -0.00142767859 0.00296380787)
(0.979386831 -0.000969037488 0.00263008325)
(0.973724485 -0.00044229283 0.00232123238)
(4.44213366 0.221360981 0.337952133)
(4.08278452 0.436514753 0.518819515)
(3.65713815 0.463113165 0.41808981)
(3.13712541 0.408849022 0.275889762)
(2.71978888 0.331879606 0.16645902)
(2.42183091 0.257584489 0.0961064648)
(2.19811905 0.195648646 0.0564774021)
(2.02638382 0.14701841 0.0358971659)
(1.89489804 0.109754315 0.025359446)
(1.79250489 0.0816002418 0.019822889)
(1.71065352 0.0604823556 0.0166926854)
(1.64391878 0.0446492733 0.0146545015)
(1.58875531 0.0327243896 0.0131103079)
(1.54265855 0.0236720459 0.0118212623)
(1.50380919 0.0167364725 0.0106952042)
(1.47086031 0.0113801055 0.00969380047)
(1.44278348 0.00722676078 0.00879799737)
(1.41876919 0.00401480879 0.00799454741)
(1.39816312 0.00156161686 0.00727117411)
(1.38042612 -0.000262453592 0.00661589939)
(1.36509973 -0.00155137756 0.00601751681)
(1.35179203 -0.00237593281 0.00546625977)
(1.34016022 -0.00279213659 0.00495430805)
(1.32990036 -0.0028475637 0.00447582111)
(1.3207406 -0.00258560591 0.0040267697)
(1.31243684 -0.00204815062 0.00360466764)
(1.30477037 -0.00127710665 0.00320822027)
(1.29754696 -0.000315067452 0.00283692612)
(4.41370728 0.123369385 0.337929411)
(3.97527147 0.285994017 0.516843903)
(3.52614165 0.346938653 0.410945623)
(3.04826437 0.341756202 0.26705684)
(2.6965025 0.304716878 0.158689153)
(2.46049544 0.256403225 0.0893130479)
(2.28810887 0.208508284 0.0503504567)
(2.15602466 0.166214803 0.030650367)
(2.05359249 0.130802072 0.0211791693)
(1.97174445 0.101949145 0.0166862944)
(1.90399335 0.0788074197 0.0144698852)
(1.84664374 0.0604007409 0.0131725278)
(1.79753411 0.045802193 0.012184786)
(1.75520959 0.0342119913 0.0112868311)
(1.71860725 0.0249816454 0.0104219116)
(1.68690612 0.0176090207 0.00958775157)
(1.65943464 0.0117179916 0.00879525438)
(1.63562108 0.00703291922 0.00805379615)
(1.61496851 0.0033540466 0.00736707296)
(1.59703986 0.000536804594 0.00673364011)
(1.58144613 -0.00152512767 0.0061487866)
(1.56783825 -0.00291282597 0.00560672124)
(1.55590009 -0.00369141403 0.0051015321)
(1.54534304 -0.0039176517 0.0046280108)
(1.53590244 -0.00364552731 0.00418210104)
(1.52733547 -0.00292991494 0.00376101474)
(1.51942047 -0.00182864373 0.00336312571)
(1.51195731 -0.000403245916 0.00298771888)
(4.40562813 0.0838872977 0.338530565)
(3.92709238 0.205872556 0.518668071)
(3.43457926 0.264635951 0.409526683)
(2.94273231 0.27463779 0.261034756)
(2.60542219 0.257661398 0.15031224)
(2.39687036 0.227952363 0.0806008781)
(2.25545437 0.19418569 0.0421482536)
(2.15328918 0.161441631 0.0232708081)
(2.07740091 0.132001474 0.0147420408)
(2.01794328 0.106516024 0.0111891931)
(1.96851263 0.0849145231 0.0098479132)
(1.92585841 0.0668366497 0.00933385686)
(1.88839692 0.0518205776 0.00902174864)
(1.85526297 0.0393978231 0.00868741726)
(1.82592509 0.0291430867 0.00828178652)
(1.80000608 0.0206964321 0.00781680502)
(1.77718744 0.0137679287 0.00731930658)
(1.75716946 0.00813233971 0.00681387028)
(1.73966071 0.00361913675 0.00631752778)
(1.72437661 0.000101209063 0.00583967945)
(1.71104256 -0.00251683082 0.00538424024)
(1.69939294 -0.00430849611 0.00495199958)
(1.6891727 -0.00533400596 0.00454175215)
(1.6801375 -0.00564786704 0.00415149615)
(1.67205417 -0.00530492279 0.00377926029)
(1.66470176 -0.00436470816 0.00342354185)
(1.65787326 -0.00289411382 0.00308348602)
(1.65137797 -0.000968374982 0.00275888277)
(4.4017816 0.0613579565 0.339165027)
(3.90241597 0.153224308 0.520514312)
(3.38073879 0.204409675 0.410099593)
(2.86920831 0.221077323 0.258748802)
(2.52749633 0.215739907 0.145980319)
(2.32475963 0.198067642 0.0755302896)
(2.19487666 0.17461136 0.0370226166)
(2.10721941 0.149753301 0.0183403133)
(2.04671114 0.125931253 0.0101168411)
(2.00215078 0.104212805 0.00691330854)
(1.96644968 0.0849427786 0.00592969923)
(1.93606736 0.0681246268 0.00577153787)
(1.90935699 0.0536023989 0.00580750598)
(1.88552891 0.041154872 0.00580461844)
(1.8642018 0.0305483418 0.00570631656)
(1.84517673 0.0215651955 0.0055206026)
(1.82831255 0.014017484 0.0052733845)
(1.81347073 0.00775132165 0.00499042762)
(1.80049835 0.00264580531 0.00469128007)
(1.78922508 -0.00139156376 0.0043884563)
(1.779469 -0.00443127358 0.00408935347)
(1.77103643 -0.00652808584 0.0037978397)
(1.7637278 -0.00772835672 0.00351531319)
(1.75734031 -0.00807690774 0.0032418506)
(1.75167106 -0.00762302831 0.0029770059)
(1.74652041 -0.00642531986 0.00272028477)
(1.74169585 -0.00455500025 0.00247142002)
(1.73701644 -0.00209734393 0.00223050429)
(4.39956805 0.0466873747 0.339653974)
(3.88830167 0.117721177 0.521954686)
(3.34831151 0.161236177 0.411270418)
(2.82102254 0.180134011 0.258567063)
(2.47119982 0.181397973 0.144564462)
(2.26665397 0.171503169 0.0735018604)
(2.13921098 0.155391831 0.0347884958)
(2.0568877 0.136632174 0.0160503042)
(2.00340157 0.117466613 0.00782600174)
(1.96661949 0.0991024353 0.0046433034)
(1.93886929 0.0821144167 0.00368821018)
(1.91625634 0.0667306474 0.00356997887)
(1.89691894 0.0529941669 0.00366435723)
(1.87995279 0.0408541522 0.00373922201)
(1.8649352 0.0302185595 0.00373423786)
(1.85167439 0.0209842056 0.00365246018)
(1.84006493 0.0130533937 0.00351520673)
(1.8300181 0.00634231348 0.0033445142)
(1.82143456 0.000784190272 0.00315720414)
(1.8141964 -0.0036717669 0.0029642362)
(1.80816637 -0.00706304174 0.00277230383)
(1.80318858 -0.00941803643 0.00258487545)
(1.79909254 -0.0107623515 0.00240327092)
(1.7956963 -0.0111249805 0.0022276368)
(1.79281038 -0.0105443208 0.00205756729)
(1.79024234 -0.00907354584 0.00189247828)
(1.78780222 -0.00678464354 0.00173184273)
(1.78530875 -0.00377046986 0.00157534028)
(4.39821705 0.0366469242 0.340043675)
(3.87961352 0.0929767434 0.523111043)
(3.32761591 0.129551851 0.412497447)
(2.78859768 0.148161317 0.259134819)
(2.43111871 0.152905448 0.144409981)
(2.222868 0.148060806 0.0729524788)
(2.09460457 0.137234291 0.0341048877)
(2.01358165 0.123201665 0.0153206534)
(1.96282402 0.107870613 0.00706021963)
(1.9296279 0.092421436 0.00383063221)
(1.90594113 0.0775326111 0.00281409197)
(1.88762355 0.0635686464 0.00262792497)
(1.87264619 0.0507072334 0.00266008392)
(1.8599916 0.0390198204 0.00268660799)
(1.84916585 0.0285208129 0.00265015508)
(1.83993767 0.0191973503 0.00255366475)
(1.83218505 0.0110273086 0.00241681962)
(1.82581788 0.00398980017 0.00225937207)
(1.82074407 -0.00192970583 0.00209577154)
(1.81685824 -0.0067381558 0.00193513293)
(1.81403356 -0.0104355081 0.00178257628)
(1.81212331 -0.013018559 0.00164020369)
(1.81096162 -0.0144863644 0.00150831879)
(1.81036598 -0.0148463655 0.0013862781)
(1.81014113 -0.0141209439 0.00127298567)
(1.81008441 -0.0123536831 0.00116717738)
(1.80999253 -0.00961441712 0.00106756858)
(1.80966965 -0.00600212209 0.00097297125)
(4.39732321 0.0293726031 0.340350512)
(3.87389112 0.0747967577 0.524007435)
(3.31373185 0.105405701 0.413538348)
(2.76609253 0.122601734 0.259835159)
(2.40219071 0.128959417 0.144690748)
(2.19002936 0.127290423 0.072999642)
(2.05985374 0.120169181 0.0340859517)
(1.9784725 0.109703748 0.0152917056)
(1.92847526 0.0974493209 0.00701849443)
(1.89677906 0.0844684514 0.00375777184)
(1.87506741 0.071450307 0.00268913356)
(1.85902697 0.0588238985 0.00243515829)
(1.84651171 0.0468488512 0.00239340139)
(1.83642364 0.0356802083 0.00234825229)
(1.82821442 0.0254107508 0.00224740726)
(1.82161791 0.0160982408 0.00209623857)
(1.81649156 0.00778320128 0.00191524577)
(1.81273451 0.000500202608 0.00172399142)
(1.81025083 -0.00571616934 0.00153636887)
(1.80893237 -0.0108282932 0.00136087752)
(1.80865071 -0.014795839 0.00120175712)
(1.80925454 -0.0175794529 0.00106034238)
(1.8105689 -0.0191460249 0.000936317676)
(1.81239678 -0.0194755358 0.00082848749)
(1.81452279 -0.0185689505 0.000735229229)
(1.81671929 -0.0164560387 0.00065474027)
(1.81875484 -0.0132019086 0.000585093567)
(1.82040467 -0.00891110606 0.000524307452)
(4.39669855 0.0238585824 0.340588068)
(3.86993177 0.0609014363 0.524694171)
(3.304044 0.0864905865 0.414373274)
(2.75001931 0.101832396 0.26048734)
(2.38090313 0.108657631 0.145090881)
(2.1651247 0.108841231 0.0732543605)
(2.03273133 0.104207478 0.0343021414)
(1.95029318 0.0963354826 0.0155089294)
(1.90012563 0.0864597844 0.00723581144)
(1.86888675 0.0754894057 0.00396189152)
(1.84806654 0.0640674995 0.00286370961)
(1.83321827 0.0526348695 0.00256596835)
(1.82210477 0.0414904087 0.00247178905)
(1.81356643 0.0308398242 0.00237117727)
(1.8070143 0.020829763 0.00221576009)
(1.80215688 0.0115711249 0.00201326123)
(1.79883724 0.00315534953 0.00178546879)
(1.79694731 -0.00433477426 0.00155255788)
(1.79638812 -0.0108184045 0.00132888992)
(1.79704915 -0.016213207 0.00112305627)
(1.79879828 -0.0204359973 0.000939170011)
(1.80147601 -0.0234063421 0.000778504656)
(1.80489288 -0.0250527037 0.000640750338)
(1.80882993 -0.0253208446 0.000524742611)
(1.81304206 -0.0241838058 0.000428741653)
(1.81726477 -0.0216522704 0.000350665451)
(1.82122462 -0.0177836792 0.000288315761)
(1.82465323 -0.0126883825 0.000239447047)
(4.39624567 0.0195350266 0.340771336)
(3.86708573 0.0499460827 0.525222095)
(3.29704931 0.0713092144 0.415032838)
(2.73822012 0.084679706 0.261042866)
(2.36490977 0.0912931523 0.14548625)
(2.14594991 0.0924301074 0.0735534239)
(2.01134792 0.0893838321 0.0345739875)
(1.92756512 0.0833266298 0.0157814975)
(1.87675459 0.0752214031 0.00751015223)
(1.84540413 0.0658211704 0.00423007106)
(1.82486609 0.0556958461 0.00311525567)
(1.81059146 0.045265005 0.00279119551)
(1.80026974 0.0348361732 0.00266400898)
(1.79269087 0.0246399437 0.00252693891)
(1.78723309 0.0148564177 0.00233397257)
(1.78358549 0.00563438563 0.00209428069)
(1.78158153 -0.00289459139 0.00183047309)
(1.78111047 -0.0106060049 0.00156340338)
(1.78207379 -0.0173754667 0.00130794081)
(1.7843622 -0.0230757215 0.00107282504)
(1.78784172 -0.0275773983 0.000862394317)
(1.79234508 -0.0307530825 0.000678249322)
(1.79766676 -0.0324849634 0.000520320723)
(1.80356121 -0.0326756798 0.000387612647)
(1.80974531 -0.0312615393 0.000278647214)
(1.8159059 -0.0282268272 0.000191642114)
(1.82171283 -0.0236171114 0.000124583105)
(1.82683735 -0.0175488394 7.52187325e-05)
(4.39590672 0.0160531943 0.340913141)
(3.86497097 0.0410868988 0.525630824)
(3.29184064 0.0588677226 0.41555234)
(2.72932757 0.0703094704 0.261499407)
(2.35263588 0.0763313199 0.145836125)
(2.13093402 0.0778284748 0.0738372806)
(1.99425862 0.0757216563 0.0348371194)
(1.9090376 0.0708767136 0.0160427371)
(1.85733699 0.0640356141 0.00777077873)
(1.82553897 0.0558084554 0.0044854123)
(1.8049035 0.0466828265 0.0033589601)
(1.79080772 0.0370387133 0.00301733692)
(1.78088509 0.0271719819 0.00286838677)
(1.77388596 0.0173191901 0.00270717728)
(1.76916304 0.00767775439 0.00248895377)
(1.76639135 -0.0015786305 0.00222354682)
(1.76539939 -0.0102877128 0.00193406356)
(1.76607833 -0.0182889859 0.00164181718)
(1.7683352 -0.0254170953 0.00136174682)
(1.77206618 -0.0314989857 0.00110271093)
(1.7771393 -0.0363546339 0.000869244219)
(1.78338201 -0.0398020196 0.000663210338)
(1.79057247 -0.0416666874 0.00048488762)
(1.79843477 -0.0417958969 0.00033373302)
(1.80663947 -0.04007668 0.000208753969)
(1.81481119 -0.0364561076 0.000108651962)
(1.82254454 -0.0309609762 3.18323825e-05)
(1.82942848 -0.0237130339 -2.36683354e-05)
(4.39564568 0.0131903637 0.341023731)
(3.86335216 0.0337796212 0.525950759)
(3.28784964 0.0485013829 0.415964043)
(2.72245196 0.0581303585 0.261870997)
(2.34300721 0.063364183 0.146133702)
(2.11895304 0.0648392697 0.0740882796)
(1.98037957 0.0632144734 0.0350719738)
(1.89372111 0.0591272203 0.0162738383)
(1.84100418 0.0531434373 0.00799895794)
(1.80855012 0.045748528 0.004707737)
(1.78756115 0.0373483378 0.00357148788)
(1.77336508 0.028274387 0.00321646696)
(1.76355628 0.0187981284 0.00305162513)
(1.75685736 0.00914860086 0.00287308138)
(1.75260401 -0.000472199641 0.00263666599)
(1.750464 -0.00987653939 0.00235259872)
(1.75026761 -0.0188796654 0.00204431134)
(1.75191449 -0.0272904946 0.00173307354)
(1.75532376 -0.0349050181 0.00143368018)
(1.76040401 -0.041502795 0.00115499844)
(1.76703183 -0.0468475032 0.000901689238)
(1.77503451 -0.050692643 0.000675842282)
(1.78417602 -0.0527933075 0.000478095202)
(1.79414749 -0.0529245434 0.000308398701)
(1.80456404 -0.050905912 0.000166352971)
(1.81497136 -0.0466304375 5.13358341e-05)
(1.82486439 -0.0400942418 -3.75479539e-05)
(1.83371945 -0.03142117 -0.000101656373)
(4.3954393 0.0107994851 0.341111092)
(3.86207842 0.0276621142 0.526204898)
(3.28470761 0.0397549471 0.416294221)
(2.71699987 0.0477168371 0.262174345)
(2.33528043 0.0520777914 0.146383629)
(2.10919879 0.053292848 0.0743044237)
(1.96890169 0.0518343898 0.0352755921)
(1.88084823 0.0481695958 0.0164731001)
(1.82705369 0.0427251811 0.00819415548)
(1.79380821 0.0358802445 0.00489682324)
(1.77228125 0.0279639446 0.00375185097)
(1.75777096 0.0192560107 0.00338580108)
(1.74784779 0.0099956673 0.00320837277)
(1.74121813 0.000394524695 0.00301625603)
(1.73721004 -0.00935115127 0.00276568542)
(1.73549305 -0.0190488805 0.00246721986)
(1.73590785 -0.0284991844 0.00214418299)
(1.73837135 -0.0374860623 0.00181749757)
(1.74282468 -0.0457691963 0.00150176804)
(1.74919968 -0.0530790335 0.00120577546)
(1.75739233 -0.0591163002 0.000934213005)
(1.76723923 -0.0635577208 0.000689337573)
(1.77849635 -0.0660697488 0.000472113091)
(1.79082188 -0.0663318109 0.000282999275)
(1.80376659 -0.0640694128 0.000122327878)
(1.81677688 -0.0590954945 -9.59097296e-06)
(1.82921548 -0.0513553862 -0.000112598105)
(1.84040348 -0.0409670614 -0.0001870385)
(4.39527203 0.00878056368 0.341181312)
(3.86104972 0.0224865869 0.526410393)
(3.28216837 0.032310161 0.416563184)
(2.71256716 0.038760001 0.262424485)
(2.32893469 0.0422318178 0.146593745)
(2.10108678 0.0430476486 0.0744893831)
(1.95922124 0.0415442321 0.0354509312)
(1.86982823 0.0380608041 0.0166443004)
(1.8149274 0.0329137916 0.00836108008)
(1.78079634 0.0263923298 0.00505789538)
(1.75858883 0.0187553725 0.00390520818)
(1.74358812 0.010230355 0.00352982966)
(1.73335292 0.0010191276 0.00334192752)
(1.72658372 -0.00869196961 0.00313867633)
(1.72261091 -0.0187210996 0.00287678189)
(1.72111548 -0.0288799436 0.00256671877)
(1.72195843 -0.0389626796 0.00223133034)
(1.72508565 -0.0487349234 0.00189118236)
(1.73047404 -0.0579235063 0.00156062748)
(1.73809424 -0.0662087568 0.00124826439)
(1.7478784 -0.0732213679 0.000958685708)
(1.75968869 -0.0785465727 0.000694195916)
(1.77328594 -0.0817387724 0.000456038319)
(1.78830079 -0.0823497295 0.000245223318)
(1.80421277 -0.0799723068 6.29836365e-05)
(1.82034527 -0.0742991353 -8.9092432e-05)
(1.83588572 -0.0651909314 -0.000209257355)
(1.84993923 -0.0527427465 -0.000296187378)
(4.39513327 0.00706392486 0.341238967)
(3.86019807 0.018079594 0.526579938)
(3.28006384 0.0259407308 0.416786288)
(2.70887377 0.0310338725 0.26263373)
(2.32360094 0.0336430926 0.146771909)
(2.0941922 0.0339887279 0.0746482969)
(1.95088769 0.0323062322 0.0356024958)
(1.8602087 0.0288372397 0.0167923074)
(1.80418672 0.0238099551 0.00850510918)
(1.76909753 0.0174370757 0.00519663947)
(1.74609022 0.0099136382 0.00403721961)
(1.7304431 0.00141516442 0.00365380461)
(1.71971215 -0.0078978996 0.00345706462)
(1.71260103 -0.0178710091 0.00324486321)
(1.70845145 -0.0283451995 0.00297392283)
(1.70696494 -0.039146098 0.0026541906)
(1.70803415 -0.0500714357 0.002308045)
(1.7116481 -0.0608771177 0.00195569613)
(1.71783701 -0.0712630995 0.00161111108)
(1.72663169 -0.0808607904 0.00128251758)
(1.73802508 -0.0892247044 0.000974247568)
(1.75193083 -0.0958322617 0.000688506761)
(1.76813804 -0.100096762 0.000426710049)
(1.78626492 -0.101399248 0.000190428654)
(1.80571869 -0.0991443744 -1.80014439e-05)
(1.82567404 -0.0928424039 -0.000195225137)
(1.84508649 -0.0822127086 -0.000337068946)
(1.86275785 -0.06729331 -0.000439477944)
(4.39501564 0.00559999668 0.341287453)
(3.85947646 0.0143173065 0.526722869)
(3.27827742 0.020483208 0.416974968)
(2.70572328 0.0243717627 0.262811687)
(2.31901589 0.0261724118 0.146924871)
(2.08820565 0.0260250406 0.0747860924)
(1.94356593 0.0240873536 0.0357346707)
(1.8516459 0.0205250451 0.0169215876)
(1.79449118 0.01549465 0.00863089452)
(1.75838114 0.00914318555 0.00531775301)
(1.73446594 0.00160693732 0.00415236934)
(1.71802479 -0.00699031543 0.00376202215)
(1.70661751 -0.016532779 0.00355825681)
(1.69895748 -0.0269041468 0.00333912071)
(1.69440423 -0.0379777846 0.00306084716)
(1.69268845 -0.0496047917 0.00273290808)
(1.69374599 -0.0615989718 0.00237730308)
(1.69762477 -0.0737189937 0.00201371494)
(1.70442973 -0.0856484645 0.00165552491)
(1.71427983 -0.0969757077 0.00131039485)
(1.72726331 -0.107176436 0.000982169008)
(1.74338469 -0.115604457 0.000672724507)
(1.76250109 -0.121497932 0.000383455094)
(1.78425017 -0.124010922 0.000116433567)
(1.80797862 -0.122280853 -0.000124684266)
(1.83268899 -0.115540222 -0.00033409717)
(1.8570322 -0.103271922 -0.00050391251)
(1.87937968 -0.0853910968 -0.000625692215)
(4.39491396 0.00435280585 0.34132926)
(3.85885205 0.0111096299 0.526845991)
(3.27672754 0.0158176664 0.417137632)
(2.7029772 0.0186495321 0.26296562)
(2.31499152 0.019714018 0.147058014)
(2.08290286 0.0190858824 0.0749069141)
(1.93700903 0.0168616065 0.0358511519)
(1.84388243 0.0131465275 0.0170357572)
(1.78558186 0.00803792978 0.00874199301)
(1.74839131 0.00162534125 0.00542456378)
(1.7234638 -0.00600998366 0.00425386842)
(1.70608258 -0.0147956311 0.0038581047)
(1.69381447 -0.024663766 0.00364910339)
(1.68538528 -0.0355437743 0.00342452426)
(1.68017655 -0.0473523165 0.00314024621)
(1.67795481 -0.0599798486 0.00280541265)
(1.67870962 -0.0732728138 0.00244146664)
(1.68256409 -0.0870108189 0.00206738992)
(1.68972236 -0.100878977 0.00169577986)
(1.70042637 -0.114436723 0.00133348081)
(1.71490632 -0.127086276 0.000983543081)
(1.73331526 -0.138046955 0.0006471795)
(1.75564257 -0.146345746 0.000325453657)
(1.78160545 -0.150839445 2.0782566e-05)
(1.81052755 -0.15028814 -0.000261635246)
(1.8412282 -0.143500762 -0.000512648191)
(1.8719645 -0.129564002 -0.000718808086)
(1.90049403 -0.108144199 -0.000864420948)
(4.39482462 0.00329567044 0.341366179)
(3.85830195 0.00838960646 0.526954188)
(3.27535729 0.0118544289 0.417280358)
(2.70053847 0.0137733803 0.263100877)
(2.31139498 0.0141869872 0.147175429)
(2.07812376 0.0131167488 0.0750139912)
(1.93103907 0.0106100208 0.0359547888)
(1.8367312 0.00672330575 0.017137454)
(1.77726871 0.00150387062 0.00884073008)
(1.73893812 -0.00501022587 0.00551927627)
(1.71289499 -0.0127892191 0.00434453479)
(1.69442631 -0.0218117831 0.00394492336)
(1.68110455 -0.0320622756 0.00373189863)
(1.6716673 -0.0435241195 0.00350298368)
(1.66551886 -0.0561696271 0.00321388259)
(1.66246469 -0.0699456197 0.00287326552)
(1.66255552 -0.0847529119 0.00250187219)
(1.66600444 -0.100418063 0.00211780553)
(1.67314053 -0.11665638 0.00173264601)
(1.6843697 -0.133026152 0.00135210791)
(1.70012423 -0.148876356 0.000978050148)
(1.72078714 -0.163294135 0.000610570549)
(1.74657975 -0.175064872 0.000249977736)
(1.77740496 -0.182667105 -0.000101184707)
(1.81264981 -0.184335552 -0.000435821347)
(1.85097376 -0.178235631 -0.000740161432)
(1.89014151 -0.162789388 -0.000992290775)
(1.92703525 -0.137171969 -0.00116415893)
(4.39474511 0.00240822823 0.341399457)
(3.85781042 0.00610604839 0.52705088)
(3.2741277 0.00852459154 0.417407429)
(2.69834051 0.00967062077 0.263221268)
(2.30813492 0.00952798337 0.147280077)
(2.07375809 0.0080748683 0.0751096672)
(1.92553356 0.00531900013 0.0360475394)
(1.83006352 0.00127658486 0.0172282072)
(1.76942117 -0.00404827028 0.00892848512)
(1.72989257 -0.0106631219 0.00560408418)
(1.70263276 -0.0185861682 0.00442670153)
(1.68292769 -0.0278477458 0.0040241656)
(1.66835068 -0.0384887844 0.00380793696)
(1.65764646 -0.0505551204 0.0035756122)
(1.65023784 -0.0640884148 0.00328261119)
(1.64596671 -0.0791119613 0.00293700637)
(1.64494667 -0.0956085566 0.00255868735)
(1.64749054 -0.113487478 0.00216467036)
(1.65407568 -0.132537591 0.00176521752)
(1.66531599 -0.152364091 0.00136450321)
(1.68191888 -0.172308346 0.000962692508)
(1.70460697 -0.191354864 0.000558207102)
(1.73398229 -0.208038432 0.000150097281)
(1.77031182 -0.220380063 -0.000259144652)
(1.81322123 -0.225902462 -0.000659837593)
(1.86131344 -0.221806082 -0.00103157706)
(1.91179059 -0.205402175 -0.00133727407)
(1.96028538 -0.174908323 -0.00152620517)
(4.39467377 0.00167430103 0.341429918)
(3.85736709 0.00421820693 0.527138358)
(3.27301323 0.00577298885 0.417521736)
(2.6963399 0.00628245711 0.263329381)
(2.30515211 0.00568502081 0.147373966)
(2.06973536 0.00392469944 0.0751954367)
(1.92041544 0.000977175392 0.036130319)
(1.82379996 -0.00317544548 0.0173087283)
(1.76196248 -0.00856503781 0.00900699862)
(1.72118398 -0.0152388014 0.00568096358)
(1.69261187 -0.0232602397 0.00450162285)
(1.67152364 -0.0327114396 0.00409670632)
(1.65548529 -0.0436929867 0.00387790515)
(1.643239 -0.0563208739 0.00364281012)
(1.63421533 -0.0707201073 0.0033464482)
(1.62828205 -0.087012743 0.00299616446)
(1.62560786 -0.105296605 0.00261080314)
(1.62660491 -0.125610042 0.00220599178)
(1.63191302 -0.147877006 0.00179022829)
(1.64239412 -0.171825849 0.00136556579)
(1.65911148 -0.196875629 0.000929814599)
(1.68326576 -0.221987199 0.000479094504)
(1.71605101 -0.245486577 1.085499e-05)
(1.75838437 -0.264889671 -0.000472160178)
(1.81045689 -0.276795804 -0.000956355589)
(1.87109643 -0.276989928 -0.00141148351)
(1.93697656 -0.260939485 -0.00177360052)
(2.00201814 -0.225027143 -0.00195325724)
(4.39460954 0.00108029593 0.341458056)
(3.85696564 0.00269177618 0.527218036)
(3.27199864 0.00355278847 0.417625088)
(2.69451118 0.00355817978 0.263426824)
(2.30241295 0.00261214464 0.147458267)
(2.06601722 0.000633114389 0.0752717939)
(1.9156448 -0.00242964641 0.0362033251)
(1.8179046 -0.00662101147 0.0173804696)
(1.75486612 -0.0120012475 0.0090780183)
(1.7127971 -0.0186524185 0.0057508694)
(1.68282888 -0.0266797974 0.00456989888)
(1.66022114 -0.0362150863 0.00416297382)
(1.64252047 -0.0474194752 0.00394196141)
(1.62845124 -0.0604846395 0.00370434889)
(1.61743323 -0.0756311492 0.0034046518)
(1.60933894 -0.0931018371 0.00304929185)
(1.60437035 -0.113145625 0.0026557345)
(1.603021 -0.135985464 0.00223768747)
(1.60608803 -0.161761419 0.00180112556)
(1.61470393 -0.190436504 0.00134500782)
(1.63036163 -0.221649711 0.000863701495)
(1.65489817 -0.25449981 0.000350236909)
(1.69038181 -0.287249883 -0.000199133932)
(1.73881654 -0.316964536 -0.000778341297)
(1.80153928 -0.339147407 -0.00136174665)
(1.87824198 -0.347582561 -0.001898667)
(1.96539331 -0.33467346 -0.00227813658)
(2.05479804 -0.293257311 -0.00238217291)
(4.39455192 0.000613898636 0.341484118)
(3.85660296 0.00149580025 0.527290666)
(3.27107673 0.00182129098 0.417718462)
(2.69284315 0.00145055472 0.26351438)
(2.29990416 0.00026441856 0.147533212)
(2.06259053 -0.00183647255 0.0753386626)
(1.91121371 -0.00492287562 0.0362678143)
(1.81238113 -0.00905822287 0.0174450648)
(1.74815083 -0.0143255261 0.00914228343)
(1.70476904 -0.0208360161 0.00581420564)
(1.67334255 -0.0287305753 0.00463179243)
(1.64910176 -0.0381856073 0.0042230083)
(1.62955827 -0.049420218 0.0039998235)
(1.61339804 -0.0627027313 0.00375951235)
(1.60000318 -0.0783564153 0.00345588416)
(1.58921695 -0.0967622123 0.00309408747)
(1.58123401 -0.118353837 0.00268961283)
(1.57658512 -0.14359786 0.00225329444)
(1.5761853 -0.172946874 0.00178715268)
(1.5814203 -0.206746877 0.00128507417)
(1.59424989 -0.245070685 0.000735588384)
(1.61729323 -0.287438751 0.000126492046)
(1.65382645 -0.33238187 -0.000547466232)
(1.70755848 -0.376807702 -0.0012703505)
(1.78198489 -0.415217926 -0.00198255615)
(1.8790065 -0.43886013 -0.00257021081)
(1.99604703 -0.435321924 -0.00278124293)
(2.12306915 -0.390404759 -0.00251963801)
(4.39450086 0.000262829641 0.341508309)
(3.85627867 0.000600121806 0.527356625)
(3.27024681 0.000536982421 0.417802193)
(2.69133557 -8.86903026e-05 0.263591947)
(2.2976274 -0.00140725162 0.147598704)
(2.05946324 -0.00352826554 0.0753971299)
(1.90714257 -0.00653421397 0.0363253891)
(1.80726655 -0.0105008891 0.0175030697)
(1.74187485 -0.0155279653 0.0092000389)
(1.69718569 -0.0217475776 0.00587109011)
(1.66427253 -0.0293275158 0.00468725121)
(1.63832389 -0.0384802577 0.00427653821)
(1.6167988 -0.0494747048 0.00405093315)
(1.59832002 -0.0626494151 0.0038073198)
(1.58219749 -0.0784280255 0.00349847854)
(1.56819796 -0.097335654 0.00312770696)
(1.55644617 -0.120012746 0.00270751064)
(1.54743116 -0.147219677 0.002244153)
(1.54209457 -0.179819393 0.00173299267)
(1.54198683 -0.218714474 0.00115881465)
(1.54948484 -0.264697167 0.000498906314)
(1.56805105 -0.318143751 -0.000270406873)
(1.60246863 -0.378446727 -0.00116113372)
(1.65890636 -0.443077331 -0.00214730909)
(1.74454681 -0.506173333 -0.00313577237)
(1.86612607 -0.556444484 -0.00393216414)
(2.02556878 -0.575208478 -0.00398803257)
(2.21503831 -0.534887893 -0.00332350481)
(4.39445726 1.54633332e-05 0.341531361)
(3.85599587 -2.57597464e-05 0.527416584)
(3.26951311 -0.000344415998 0.417876126)
(2.68999541 -0.00111223031 0.263659707)
(2.29559684 -0.00245879437 0.147655667)
(2.05666126 -0.0044960278 0.0754486549)
(1.90347336 -0.00731071643 0.0363764728)
(1.80262384 -0.0109852722 0.0175545618)
(1.73612965 -0.01562782 0.00925123375)
(1.69017573 -0.0213814078 0.00592135311)
(1.65579426 -0.028429288 0.00473598575)
(1.62812013 -0.0370068265 0.00432314259)
(1.60454234 -0.0474176729 0.00409467504)
(1.58359431 -0.0600540868 0.00384681946)
(1.56447474 -0.0754233859 0.00353086785)
(1.54681618 -0.0941812938 0.00314741132)
(1.53058961 -0.117171564 0.00270438214)
(1.51612432 -0.145468987 0.00220060174)
(1.50423 -0.180417223 0.00161978524)
(1.49642597 -0.223640324 0.000929472502)
(1.49530151 -0.27698122 8.35147748e-05)
(1.50503064 -0.342270621 -0.000968273867)
(1.5320329 -0.420734802 -0.00225538874)
(1.58568926 -0.511840386 -0.00375474847)
(1.67890494 -0.610952455 -0.00539327523)
(1.82726793 -0.70513338 -0.00700809738)
(2.04565255 -0.76818243 -0.00811174367)
(2.34208995 -0.743805607 -0.00926786865)
(4.39442113 -0.000139413269 0.341552668)
(3.85575597 -0.000414094404 0.527469614)
(3.26888145 -0.000872086796 0.417939887)
(2.68883607 -0.00167823378 0.263718025)
(2.2938361 -0.00295440256 0.14770487)
(2.05422188 -0.00480694869 0.0754934054)
(1.90026213 -0.00731994285 0.0364209041)
(1.79853478 -0.0105753181 0.0175992736)
(1.73103157 -0.0146806884 0.00929553792)
(1.68390105 -0.0197786775 0.00596462637)
(1.64812871 -0.0260538301 0.00477761162)
(1.61878711 -0.0337465624 0.00436241853)
(1.59318116 -0.0431727148 0.00413059422)
(1.56973203 -0.0547498511 0.00387743045)
(1.54748991 -0.069033855 0.00355218177)
(1.5258929 -0.0867693994 0.0031516425)
(1.50466208 -0.108958416 0.00267698013)
(1.48381593 -0.136951383 0.00211520725)
(1.46380114 -0.172565036 0.00142983469)
(1.44576746 -0.218223496 0.000554796999)
(1.43205803 -0.277099347 -0.000609025625)
(1.42703543 -0.353166338 -0.00218524727)
(1.43840802 -0.451038937 -0.00429476735)
(1.47925009 -0.575098104 -0.00703144098)
(1.57089891 -0.726811561 -0.0105459947)
(1.74400731 -0.897900384 -0.0148366568)
(2.04436863 -1.05458193 -0.0201800099)