/*--------------------------------*- C++ -*----------------------------------*\
| =========                 |                                                 |
| \\      /  F ield         | foam-extend: Open Source CFD                    |
|  \\    /   O peration     | Version:     4.1                                |
|   \\  /    A nd           | Web:         http://www.foam-extend.org         |
|    \\/     M anipulation  |                                                 |
\*---------------------------------------------------------------------------*/
FoamFile
{
    version     2.0;
    format      ascii;
    class       volScalarField::DimensionedInternalField;
    location    "0.2";
    object      V0;
}
// * * * * * * * * * * * * * * * * * * * * * * * * * * * * * * * * * * * * * //

dimensions      [0 3 0 0 0 0 0];

value           nonuniform List<scalar> 
35840
(
1.00000005e-06
1.00000016e-06
1.00000028e-06
1.0000004e-06
1.00000054e-06
1.00000069e-06
1.00000087e-06
1.00000108e-06
1.00000132e-06
1.0000016e-06
1.00000193e-06
1.0000023e-06
1.00000273e-06
1.0000032e-06
1.00000374e-06
1.00000433e-06
1.00000497e-06
1.00000566e-06
1.00000639e-06
1.00000715e-06
1.00000793e-06
1.0000087e-06
1.00000947e-06
1.00001019e-06
1.00001086e-06
1.00001146e-06
1.00001196e-06
1.00001235e-06
1.00000006e-06
1.00000017e-06
1.00000028e-06
1.00000041e-06
1.00000055e-06
1.00000071e-06
1.00000089e-06
1.00000111e-06
1.00000135e-06
1.00000165e-06
1.00000198e-06
1.00000237e-06
1.00000281e-06
1.0000033e-06
1.00000386e-06
1.00000448e-06
1.00000515e-06
1.00000587e-06
1.00000664e-06
1.00000744e-06
1.00000826e-06
1.00000908e-06
1.00000989e-06
1.00001066e-06
1.00001137e-06
1.00001201e-06
1.00001254e-06
1.00001296e-06
1.00000006e-06
1.00000018e-06
1.0000003e-06
1.00000043e-06
1.00000058e-06
1.00000075e-06
1.00000095e-06
1.00000118e-06
1.00000145e-06
1.00000177e-06
1.00000213e-06
1.00000256e-06
1.00000304e-06
1.00000359e-06
1.00000421e-06
1.0000049e-06
1.00000565e-06
1.00000647e-06
1.00000734e-06
1.00000825e-06
1.00000919e-06
1.00001013e-06
1.00001106e-06
1.00001196e-06
1.00001278e-06
1.00001352e-06
1.00001414e-06
1.00001462e-06
1.00000006e-06
1.00000019e-06
1.00000033e-06
1.00000048e-06
1.00000064e-06
1.00000083e-06
1.00000105e-06
1.00000131e-06
1.00000162e-06
1.00000198e-06
1.00000241e-06
1.0000029e-06
1.00000346e-06
1.00000411e-06
1.00000485e-06
1.00000566e-06
1.00000657e-06
1.00000755e-06
1.00000861e-06
1.00000972e-06
1.00001087e-06
1.00001204e-06
1.00001319e-06
1.00001429e-06
1.00001533e-06
1.00001625e-06
1.00001703e-06
1.00001764e-06
1.00000007e-06
1.00000022e-06
1.00000037e-06
1.00000054e-06
1.00000073e-06
1.00000095e-06
1.0000012e-06
1.00000151e-06
1.00000187e-06
1.0000023e-06
1.00000281e-06
1.0000034e-06
1.00000409e-06
1.00000488e-06
1.00000578e-06
1.0000068e-06
1.00000792e-06
1.00000916e-06
1.0000105e-06
1.00001191e-06
1.00001338e-06
1.00001488e-06
1.00001637e-06
1.00001781e-06
1.00001916e-06
1.00002037e-06
1.00002139e-06
1.00002219e-06
1.00000008e-06
1.00000025e-06
1.00000043e-06
1.00000062e-06
1.00000084e-06
1.0000011e-06
1.0000014e-06
1.00000177e-06
1.0000022e-06
1.00000272e-06
1.00000334e-06
1.00000407e-06
1.00000492e-06
1.00000591e-06
1.00000705e-06
1.00000833e-06
1.00000978e-06
1.00001137e-06
1.00001309e-06
1.00001494e-06
1.00001687e-06
1.00001884e-06
1.00002082e-06
1.00002274e-06
1.00002453e-06
1.00002615e-06
1.00002753e-06
1.00002861e-06
1.0000001e-06
1.00000029e-06
1.0000005e-06
1.00000072e-06
1.00000098e-06
1.00000129e-06
1.00000165e-06
1.00000209e-06
1.00000262e-06
1.00000326e-06
1.00000402e-06
1.00000493e-06
1.000006e-06
1.00000725e-06
1.00000869e-06
1.00001034e-06
1.0000122e-06
1.00001427e-06
1.00001653e-06
1.00001896e-06
1.00002151e-06
1.00002415e-06
1.0000268e-06
1.00002938e-06
1.00003181e-06
1.00003401e-06
1.00003589e-06
1.00003737e-06
1.00000011e-06
1.00000034e-06
1.00000058e-06
1.00000085e-06
1.00000115e-06
1.00000152e-06
1.00000195e-06
1.00000249e-06
1.00000313e-06
1.00000392e-06
1.00000486e-06
1.00000599e-06
1.00000734e-06
1.00000892e-06
1.00001076e-06
1.00001288e-06
1.00001529e-06
1.00001799e-06
1.00002096e-06
1.00002418e-06
1.00002758e-06
1.00003112e-06
1.00003468e-06
1.00003818e-06
1.0000415e-06
1.0000445e-06
1.00004707e-06
1.0000491e-06
1.00000013e-06
1.0000004e-06
1.00000068e-06
1.00000099e-06
1.00000135e-06
1.00000178e-06
1.00000231e-06
1.00000295e-06
1.00000374e-06
1.00000471e-06
1.00000587e-06
1.00000729e-06
1.00000898e-06
1.00001098e-06
1.00001333e-06
1.00001606e-06
1.00001918e-06
1.0000227e-06
1.0000266e-06
1.00003086e-06
1.0000354e-06
1.00004014e-06
1.00004496e-06
1.00004971e-06
1.00005423e-06
1.00005834e-06
1.00006187e-06
1.00006467e-06
1.00000015e-06
1.00000046e-06
1.00000078e-06
1.00000115e-06
1.00000158e-06
1.00000209e-06
1.00000272e-06
1.0000035e-06
1.00000446e-06
1.00000564e-06
1.00000708e-06
1.00000883e-06
1.00001095e-06
1.00001348e-06
1.00001647e-06
1.00001996e-06
1.00002399e-06
1.00002857e-06
1.00003369e-06
1.00003931e-06
1.00004536e-06
1.00005172e-06
1.00005822e-06
1.00006467e-06
1.00007084e-06
1.00007647e-06
1.00008134e-06
1.0000852e-06
1.00000017e-06
1.00000053e-06
1.00000091e-06
1.00000133e-06
1.00000183e-06
1.00000244e-06
1.00000319e-06
1.00000412e-06
1.00000528e-06
1.00000671e-06
1.00000848e-06
1.00001065e-06
1.00001328e-06
1.00001645e-06
1.00002024e-06
1.00002469e-06
1.00002987e-06
1.00003581e-06
1.00004251e-06
1.00004991e-06
1.00005795e-06
1.00006645e-06
1.00007521e-06
1.00008396e-06
1.00009237e-06
1.0001001e-06
1.00010679e-06
1.00011212e-06
1.0000002e-06
1.0000006e-06
1.00000104e-06
1.00000153e-06
1.00000211e-06
1.00000283e-06
1.00000371e-06
1.00000482e-06
1.00000621e-06
1.00000794e-06
1.00001009e-06
1.00001275e-06
1.00001601e-06
1.00001996e-06
1.00002471e-06
1.00003036e-06
1.00003698e-06
1.00004464e-06
1.00005335e-06
1.00006307e-06
1.00007369e-06
1.00008504e-06
1.00009682e-06
1.00010866e-06
1.00012012e-06
1.00013071e-06
1.00013992e-06
1.00014728e-06
1.00000023e-06
1.00000069e-06
1.00000118e-06
1.00000174e-06
1.00000242e-06
1.00000324e-06
1.00000428e-06
1.00000559e-06
1.00000724e-06
1.00000931e-06
1.00001191e-06
1.00001514e-06
1.00001914e-06
1.00002402e-06
1.00002995e-06
1.00003706e-06
1.00004546e-06
1.00005527e-06
1.00006653e-06
1.00007922e-06
1.00009321e-06
1.00010829e-06
1.00012408e-06
1.00014008e-06
1.00015568e-06
1.00017017e-06
1.00018283e-06
1.00019299e-06
1.00000025e-06
1.00000077e-06
1.00000133e-06
1.00000196e-06
1.00000273e-06
1.00000368e-06
1.00000489e-06
1.00000641e-06
1.00000836e-06
1.00001082e-06
1.00001393e-06
1.00001782e-06
1.00002267e-06
1.00002866e-06
1.00003598e-06
1.00004485e-06
1.00005544e-06
1.00006791e-06
1.00008236e-06
1.00009882e-06
1.00011715e-06
1.00013709e-06
1.00015818e-06
1.00017973e-06
1.00020091e-06
1.00022073e-06
1.00023813e-06
1.00025215e-06
1.00000028e-06
1.00000085e-06
1.00000147e-06
1.00000219e-06
1.00000305e-06
1.00000414e-06
1.00000552e-06
1.00000728e-06
1.00000954e-06
1.00001243e-06
1.0000161e-06
1.00002074e-06
1.00002658e-06
1.00003384e-06
1.0000428e-06
1.00005375e-06
1.00006696e-06
1.00008268e-06
1.0001011e-06
1.00012228e-06
1.00014615e-06
1.00017238e-06
1.0002004e-06
1.00022935e-06
1.00025804e-06
1.0002851e-06
1.00030901e-06
1.00032836e-06
1.00000031e-06
1.00000094e-06
1.00000162e-06
1.00000241e-06
1.00000338e-06
1.0000046e-06
1.00000616e-06
1.00000817e-06
1.00001076e-06
1.0000141e-06
1.00001838e-06
1.00002385e-06
1.00003077e-06
1.00003948e-06
1.00005034e-06
1.00006373e-06
1.00008004e-06
1.00009965e-06
1.00012289e-06
1.00014993e-06
1.00018075e-06
1.00021503e-06
1.00025209e-06
1.00029078e-06
1.00032956e-06
1.00036645e-06
1.0003993e-06
1.00042601e-06
1.00000033e-06
1.00000102e-06
1.00000176e-06
1.00000263e-06
1.00000369e-06
1.00000504e-06
1.00000678e-06
1.00000904e-06
1.00001198e-06
1.00001579e-06
1.00002072e-06
1.00002706e-06
1.00003517e-06
1.00004548e-06
1.00005847e-06
1.00007464e-06
1.00009453e-06
1.00011871e-06
1.00014771e-06
1.00018187e-06
1.00022131e-06
1.00026577e-06
1.00031445e-06
1.00036595e-06
1.00041818e-06
1.00046843e-06
1.00051357e-06
1.00055049e-06
1.00000036e-06
1.00000109e-06
1.00000188e-06
1.00000282e-06
1.00000397e-06
1.00000545e-06
1.00000736e-06
1.00000987e-06
1.00001314e-06
1.00001743e-06
1.00002302e-06
1.00003027e-06
1.00003964e-06
1.00005165e-06
1.00006691e-06
1.00008611e-06
1.00011007e-06
1.00013955e-06
1.00017526e-06
1.00021791e-06
1.00026786e-06
1.00032498e-06
1.00038844e-06
1.0004566e-06
1.00052673e-06
1.00059511e-06
1.00065723e-06
1.00070843e-06
1.00000037e-06
1.00000114e-06
1.00000198e-06
1.00000297e-06
1.00000421e-06
1.00000579e-06
1.00000786e-06
1.00001059e-06
1.00001419e-06
1.00001893e-06
1.00002515e-06
1.00003331e-06
1.00004392e-06
1.00005766e-06
1.00007527e-06
1.00009773e-06
1.00012608e-06
1.00016138e-06
1.0002048e-06
1.00025738e-06
1.00031986e-06
1.00039242e-06
1.00047441e-06
1.00056402e-06
1.00065789e-06
1.00075097e-06
1.00083677e-06
1.00090822e-06
1.00000039e-06
1.00000118e-06
1.00000205e-06
1.00000308e-06
1.00000438e-06
1.00000605e-06
1.00000825e-06
1.00001116e-06
1.00001504e-06
1.00002017e-06
1.00002698e-06
1.00003596e-06
1.00004775e-06
1.00006315e-06
1.00008314e-06
1.00010892e-06
1.00014178e-06
1.00018329e-06
1.00023517e-06
1.00029897e-06
1.00037597e-06
1.00046695e-06
1.00057173e-06
1.00068865e-06
1.00081391e-06
1.0009409e-06
1.00106032e-06
1.00116126e-06
1.00000039e-06
1.0000012e-06
1.00000208e-06
1.00000314e-06
1.00000447e-06
1.00000619e-06
1.00000848e-06
1.00001153e-06
1.00001561e-06
1.00002106e-06
1.00002834e-06
1.00003801e-06
1.00005084e-06
1.00006775e-06
1.00008993e-06
1.00011882e-06
1.00015619e-06
1.00020407e-06
1.00026468e-06
1.00034047e-06
1.00043379e-06
1.00054616e-06
1.00067828e-06
1.00082953e-06
1.00099626e-06
1.00117044e-06
1.00133901e-06
1.0014847e-06
1.00000039e-06
1.00000119e-06
1.00000207e-06
1.00000312e-06
1.00000446e-06
1.0000062e-06
1.00000853e-06
1.00001164e-06
1.00001584e-06
1.00002148e-06
1.00002906e-06
1.00003923e-06
1.00005282e-06
1.00007091e-06
1.00009489e-06
1.00012649e-06
1.00016786e-06
1.00022162e-06
1.00029075e-06
1.00037867e-06
1.00048891e-06
1.00062487e-06
1.0007894e-06
1.00098357e-06
1.00120523e-06
1.00144643e-06
1.00168992e-06
1.0019078e-06
1.00000037e-06
1.00000115e-06
1.000002e-06
1.00000303e-06
1.00000434e-06
1.00000605e-06
1.00000835e-06
1.00001145e-06
1.00001564e-06
1.00002132e-06
1.000029e-06
1.00003937e-06
1.00005334e-06
1.00007211e-06
1.00009724e-06
1.00013072e-06
1.0001751e-06
1.00023357e-06
1.00031e-06
1.00040896e-06
1.0005357e-06
1.00069648e-06
1.0008978e-06
1.00114469e-06
1.00143945e-06
1.00177825e-06
1.00214204e-06
1.00248573e-06
1.00000035e-06
1.00000108e-06
1.00000188e-06
1.00000285e-06
1.00000409e-06
1.00000573e-06
1.00000793e-06
1.00001092e-06
1.00001497e-06
1.0000205e-06
1.00002801e-06
1.00003823e-06
1.0000521e-06
1.00007089e-06
1.00009626e-06
1.00013042e-06
1.00017625e-06
1.00023747e-06
1.00031882e-06
1.00042629e-06
1.0005676e-06
1.00075237e-06
1.00099228e-06
1.00130151e-06
1.00169421e-06
1.00217926e-06
1.0027462e-06
1.00332684e-06
1.00000032e-06
1.00000098e-06
1.00000171e-06
1.00000259e-06
1.00000373e-06
1.00000523e-06
1.00000727e-06
1.00001003e-06
1.0000138e-06
1.00001896e-06
1.00002603e-06
1.00003568e-06
1.00004887e-06
1.00006686e-06
1.00009136e-06
1.00012466e-06
1.00016983e-06
1.00023098e-06
1.00031359e-06
1.00042509e-06
1.00057566e-06
1.00077941e-06
1.00105608e-06
1.00143435e-06
1.0019552e-06
1.00266383e-06
1.00358548e-06
1.00463418e-06
1.00000028e-06
1.00000085e-06
1.00000148e-06
1.00000225e-06
1.00000324e-06
1.00000456e-06
1.00000635e-06
1.00000878e-06
1.00001212e-06
1.00001671e-06
1.00002301e-06
1.00003167e-06
1.00004356e-06
1.00005987e-06
1.00008224e-06
1.00011288e-06
1.00015484e-06
1.00021231e-06
1.00029112e-06
1.00039964e-06
1.00055022e-06
1.00076189e-06
1.00106528e-06
1.0015109e-06
1.00218374e-06
1.00322058e-06
1.00475844e-06
1.00670399e-06
1.00000022e-06
1.00000069e-06
1.00000121e-06
1.00000184e-06
1.00000265e-06
1.00000373e-06
1.0000052e-06
1.00000721e-06
1.00000998e-06
1.00001379e-06
1.00001904e-06
1.00002627e-06
1.00003625e-06
1.00005001e-06
1.00006896e-06
1.00009509e-06
1.00013111e-06
1.00018089e-06
1.00024997e-06
1.00034666e-06
1.00048408e-06
1.00068449e-06
1.00098843e-06
1.00147357e-06
1.00228932e-06
1.00371199e-06
1.00623893e-06
1.00952478e-06
1.00000017e-06
1.00000051e-06
1.00000089e-06
1.00000136e-06
1.00000196e-06
1.00000277e-06
1.00000386e-06
1.00000536e-06
1.00000743e-06
1.00001029e-06
1.00001423e-06
1.00001968e-06
1.00002722e-06
1.00003763e-06
1.00005204e-06
1.00007196e-06
1.00009956e-06
1.0001379e-06
1.00019147e-06
1.00026717e-06
1.00037638e-06
1.00053954e-06
1.00079718e-06
1.00123637e-06
1.00204996e-06
1.00362155e-06
1.00632602e-06
1.0141724e-06
1.00000016e-06
1.00000047e-06
1.00000081e-06
1.00000116e-06
1.00000156e-06
1.00000201e-06
1.00000253e-06
1.00000313e-06
1.00000384e-06
1.00000465e-06
1.0000056e-06
1.00000668e-06
1.00000791e-06
1.0000093e-06
1.00001085e-06
1.00001256e-06
1.00001442e-06
1.00001642e-06
1.00001854e-06
1.00002074e-06
1.000023e-06
1.00002526e-06
1.00002747e-06
1.00002958e-06
1.00003153e-06
1.00003325e-06
1.0000347e-06
1.00003583e-06
1.00000016e-06
1.00000048e-06
1.00000082e-06
1.00000119e-06
1.00000159e-06
1.00000205e-06
1.00000259e-06
1.00000321e-06
1.00000393e-06
1.00000477e-06
1.00000575e-06
1.00000687e-06
1.00000815e-06
1.00000959e-06
1.00001121e-06
1.00001299e-06
1.00001494e-06
1.00001704e-06
1.00001927e-06
1.00002159e-06
1.00002397e-06
1.00002636e-06
1.00002871e-06
1.00003094e-06
1.00003301e-06
1.00003485e-06
1.0000364e-06
1.0000376e-06
1.00000017e-06
1.00000051e-06
1.00000087e-06
1.00000126e-06
1.00000169e-06
1.00000218e-06
1.00000275e-06
1.00000342e-06
1.00000421e-06
1.00000512e-06
1.00000619e-06
1.00000742e-06
1.00000883e-06
1.00001043e-06
1.00001222e-06
1.00001422e-06
1.00001641e-06
1.00001878e-06
1.0000213e-06
1.00002395e-06
1.00002667e-06
1.00002941e-06
1.00003211e-06
1.0000347e-06
1.00003709e-06
1.00003923e-06
1.00004103e-06
1.00004244e-06
1.00000019e-06
1.00000056e-06
1.00000096e-06
1.00000138e-06
1.00000186e-06
1.00000241e-06
1.00000306e-06
1.00000381e-06
1.00000471e-06
1.00000575e-06
1.00000698e-06
1.00000841e-06
1.00001005e-06
1.00001194e-06
1.00001406e-06
1.00001644e-06
1.00001907e-06
1.00002192e-06
1.00002498e-06
1.00002821e-06
1.00003155e-06
1.00003493e-06
1.00003827e-06
1.00004149e-06
1.00004448e-06
1.00004715e-06
1.00004941e-06
1.00005119e-06
1.00000021e-06
1.00000064e-06
1.00000108e-06
1.00000156e-06
1.00000211e-06
1.00000275e-06
1.00000349e-06
1.00000438e-06
1.00000543e-06
1.00000667e-06
1.00000814e-06
1.00000986e-06
1.00001186e-06
1.00001416e-06
1.00001678e-06
1.00001972e-06
1.000023e-06
1.00002659e-06
1.00003046e-06
1.00003457e-06
1.00003884e-06
1.00004319e-06
1.00004752e-06
1.0000517e-06
1.0000556e-06
1.0000591e-06
1.00006207e-06
1.00006441e-06
1.00000024e-06
1.00000073e-06
1.00000124e-06
1.0000018e-06
1.00000244e-06
1.00000319e-06
1.00000407e-06
1.00000513e-06
1.00000639e-06
1.0000079e-06
1.00000969e-06
1.00001181e-06
1.00001429e-06
1.00001716e-06
1.00002045e-06
1.00002419e-06
1.00002837e-06
1.00003299e-06
1.000038e-06
1.00004335e-06
1.00004895e-06
1.00005469e-06
1.00006042e-06
1.00006598e-06
1.0000712e-06
1.0000759e-06
1.00007989e-06
1.00008304e-06
1.00000028e-06
1.00000085e-06
1.00000144e-06
1.0000021e-06
1.00000285e-06
1.00000374e-06
1.0000048e-06
1.00000607e-06
1.00000761e-06
1.00000946e-06
1.00001167e-06
1.0000143e-06
1.0000174e-06
1.00002103e-06
1.00002522e-06
1.00003001e-06
1.0000354e-06
1.0000414e-06
1.00004796e-06
1.00005501e-06
1.00006243e-06
1.00007008e-06
1.00007777e-06
1.00008527e-06
1.00009233e-06
1.00009871e-06
1.00010415e-06
1.00010845e-06
1.00000033e-06
1.00000099e-06
1.00000168e-06
1.00000245e-06
1.00000334e-06
1.0000044e-06
1.00000567e-06
1.00000722e-06
1.00000909e-06
1.00001136e-06
1.00001411e-06
1.00001739e-06
1.00002129e-06
1.00002589e-06
1.00003124e-06
1.00003739e-06
1.00004439e-06
1.00005221e-06
1.00006083e-06
1.00007016e-06
1.00008005e-06
1.0000903e-06
1.00010066e-06
1.00011081e-06
1.00012043e-06
1.00012914e-06
1.0001366e-06
1.0001425e-06
1.00000038e-06
1.00000115e-06
1.00000196e-06
1.00000287e-06
1.00000392e-06
1.00000518e-06
1.00000671e-06
1.00000857e-06
1.00001086e-06
1.00001365e-06
1.00001705e-06
1.00002115e-06
1.00002605e-06
1.00003187e-06
1.00003869e-06
1.0000466e-06
1.00005566e-06
1.00006587e-06
1.0000772e-06
1.00008955e-06
1.00010273e-06
1.00011649e-06
1.00013047e-06
1.00014426e-06
1.00015737e-06
1.0001693e-06
1.00017956e-06
1.00018769e-06
1.00000044e-06
1.00000133e-06
1.00000228e-06
1.00000334e-06
1.00000458e-06
1.00000607e-06
1.0000079e-06
1.00001016e-06
1.00001293e-06
1.00001635e-06
1.00002054e-06
1.00002563e-06
1.00003177e-06
1.00003911e-06
1.00004778e-06
1.00005792e-06
1.00006962e-06
1.00008291e-06
1.00009778e-06
1.0001141e-06
1.00013165e-06
1.00015009e-06
1.00016896e-06
1.00018768e-06
1.00020557e-06
1.00022193e-06
1.00023604e-06
1.00024725e-06
1.0000005e-06
1.00000153e-06
1.00000263e-06
1.00000386e-06
1.00000532e-06
1.00000709e-06
1.00000926e-06
1.00001196e-06
1.00001532e-06
1.00001948e-06
1.00002461e-06
1.0000309e-06
1.00003855e-06
1.00004775e-06
1.00005873e-06
1.00007166e-06
1.0000867e-06
1.00010393e-06
1.00012335e-06
1.00014485e-06
1.00016816e-06
1.00019284e-06
1.00021826e-06
1.00024365e-06
1.00026806e-06
1.00029048e-06
1.0003099e-06
1.00032537e-06
1.00000058e-06
1.00000175e-06
1.00000301e-06
1.00000444e-06
1.00000613e-06
1.00000821e-06
1.00001078e-06
1.00001399e-06
1.00001802e-06
1.00002304e-06
1.00002929e-06
1.000037e-06
1.00004645e-06
1.00005793e-06
1.00007172e-06
1.00008811e-06
1.00010733e-06
1.00012955e-06
1.00015482e-06
1.00018302e-06
1.00021386e-06
1.00024678e-06
1.00028096e-06
1.00031533e-06
1.00034859e-06
1.00037931e-06
1.00040602e-06
1.00042737e-06
1.00000066e-06
1.00000199e-06
1.00000342e-06
1.00000505e-06
1.00000701e-06
1.00000941e-06
1.00001242e-06
1.00001622e-06
1.00002101e-06
1.00002703e-06
1.00003457e-06
1.00004395e-06
1.00005554e-06
1.00006972e-06
1.00008692e-06
1.00010754e-06
1.00013194e-06
1.00016041e-06
1.00019308e-06
1.00022989e-06
1.00027051e-06
1.00031425e-06
1.00036006e-06
1.00040648e-06
1.00045173e-06
1.00049377e-06
1.0005305e-06
1.00055996e-06
1.00000073e-06
1.00000223e-06
1.00000385e-06
1.0000057e-06
1.00000792e-06
1.00001069e-06
1.00001418e-06
1.00001862e-06
1.00002425e-06
1.0000314e-06
1.00004042e-06
1.00005172e-06
1.00006579e-06
1.00008317e-06
1.00010443e-06
1.00013015e-06
1.00016088e-06
1.00019707e-06
1.00023902e-06
1.00028676e-06
1.00033996e-06
1.00039782e-06
1.00045898e-06
1.00052151e-06
1.00058294e-06
1.0006404e-06
1.00069088e-06
1.00073152e-06
1.00000081e-06
1.00000248e-06
1.00000428e-06
1.00000635e-06
1.00000887e-06
1.00001201e-06
1.00001602e-06
1.00002113e-06
1.00002768e-06
1.00003606e-06
1.00004671e-06
1.0000602e-06
1.00007713e-06
1.0000982e-06
1.00012421e-06
1.000156e-06
1.00019433e-06
1.00023995e-06
1.00029338e-06
1.00035484e-06
1.00042407e-06
1.00050017e-06
1.00058146e-06
1.00066538e-06
1.00074857e-06
1.00082699e-06
1.0008963e-06
1.00095235e-06
1.00000089e-06
1.00000272e-06
1.0000047e-06
1.000007e-06
1.00000981e-06
1.00001335e-06
1.00001787e-06
1.0000237e-06
1.00003123e-06
1.00004092e-06
1.00005335e-06
1.00006922e-06
1.0000893e-06
1.00011458e-06
1.0001461e-06
1.00018495e-06
1.00023227e-06
1.00028918e-06
1.00035659e-06
1.00043503e-06
1.00052443e-06
1.00062386e-06
1.00073129e-06
1.00084345e-06
1.00095578e-06
1.00106262e-06
1.00115772e-06
1.001235e-06
1.00000097e-06
1.00000295e-06
1.00000511e-06
1.00000762e-06
1.00001071e-06
1.00001463e-06
1.00001968e-06
1.00002624e-06
1.00003476e-06
1.00004583e-06
1.00006014e-06
1.00007854e-06
1.00010206e-06
1.00013198e-06
1.00016969e-06
1.00021661e-06
1.00027431e-06
1.00034448e-06
1.00042859e-06
1.00052767e-06
1.00064205e-06
1.00077092e-06
1.00091197e-06
1.00106111e-06
1.00121226e-06
1.00135755e-06
1.00148797e-06
1.00159457e-06
1.00000103e-06
1.00000315e-06
1.00000546e-06
1.00000817e-06
1.00001153e-06
1.00001581e-06
1.00002137e-06
1.00002863e-06
1.00003814e-06
1.00005058e-06
1.0000668e-06
1.00008785e-06
1.00011504e-06
1.0001499e-06
1.00019416e-06
1.00024988e-06
1.0003194e-06
1.00040491e-06
1.0005085e-06
1.00063216e-06
1.00077694e-06
1.00094237e-06
1.00112608e-06
1.00132317e-06
1.00152573e-06
1.00172295e-06
1.00190184e-06
1.0020491e-06
1.00000109e-06
1.00000331e-06
1.00000575e-06
1.00000863e-06
1.00001221e-06
1.00001681e-06
1.00002282e-06
1.00003073e-06
1.00004117e-06
1.00005492e-06
1.000073e-06
1.00009665e-06
1.00012747e-06
1.00016732e-06
1.00021843e-06
1.00028359e-06
1.00036582e-06
1.00046821e-06
1.00059411e-06
1.0007465e-06
1.00092744e-06
1.0011374e-06
1.00137436e-06
1.00163288e-06
1.00190313e-06
1.00217044e-06
1.00241618e-06
1.00262031e-06
1.00000112e-06
1.00000342e-06
1.00000595e-06
1.00000895e-06
1.0000127e-06
1.00001756e-06
1.00002394e-06
1.0000324e-06
1.00004363e-06
1.00005855e-06
1.00007829e-06
1.00010435e-06
1.00013858e-06
1.00018326e-06
1.00024127e-06
1.00031603e-06
1.00041136e-06
1.00053173e-06
1.00068206e-06
1.00086684e-06
1.00108962e-06
1.00135243e-06
1.00165445e-06
1.00199054e-06
1.00234926e-06
1.00271135e-06
1.00305018e-06
1.00333518e-06
1.00000113e-06
1.00000347e-06
1.00000604e-06
1.0000091e-06
1.00001296e-06
1.00001798e-06
1.00002462e-06
1.00003347e-06
1.00004531e-06
1.00006113e-06
1.00008223e-06
1.00011031e-06
1.00014752e-06
1.00019659e-06
1.00026095e-06
1.00034476e-06
1.00045311e-06
1.00059188e-06
1.00076742e-06
1.00098669e-06
1.00125622e-06
1.00158e-06
1.00195936e-06
1.00239159e-06
1.00286506e-06
1.00335581e-06
1.0038265e-06
1.00422962e-06
1.00000112e-06
1.00000344e-06
1.000006e-06
1.00000906e-06
1.00001293e-06
1.000018e-06
1.00002475e-06
1.00003379e-06
1.00004596e-06
1.00006234e-06
1.00008434e-06
1.00011384e-06
1.00015327e-06
1.00020576e-06
1.00027532e-06
1.00036696e-06
1.0004869e-06
1.00064264e-06
1.00084268e-06
1.00109666e-06
1.00141432e-06
1.00180457e-06
1.0022742e-06
1.00282406e-06
1.00344505e-06
1.00411156e-06
1.0047736e-06
1.00535632e-06
1.00000109e-06
1.00000333e-06
1.00000581e-06
1.00000879e-06
1.00001258e-06
1.00001757e-06
1.00002424e-06
1.00003323e-06
1.0000454e-06
1.00006187e-06
1.00008415e-06
1.00011425e-06
1.00015479e-06
1.00020925e-06
1.00028212e-06
1.00037919e-06
1.0005078e-06
1.00067704e-06
1.00089797e-06
1.00118326e-06
1.00154724e-06
1.00200623e-06
1.00257585e-06
1.00326543e-06
1.00407402e-06
1.00498179e-06
1.00592938e-06
1.00679898e-06
1.00000102e-06
1.00000313e-06
1.00000546e-06
1.00000828e-06
1.00001188e-06
1.00001664e-06
1.00002303e-06
1.00003168e-06
1.00004346e-06
1.00005948e-06
1.0000813e-06
1.00011095e-06
1.00015119e-06
1.00020568e-06
1.00027925e-06
1.00037828e-06
1.00051101e-06
1.00068806e-06
1.00092281e-06
1.00123183e-06
1.0016358e-06
1.00215928e-06
1.00282958e-06
1.00367591e-06
1.00471964e-06
1.00595937e-06
1.00734119e-06
1.0086897e-06
1.00000092e-06
1.00000283e-06
1.00000496e-06
1.00000753e-06
1.00001082e-06
1.00001519e-06
1.00002108e-06
1.0000291e-06
1.00004005e-06
1.00005503e-06
1.00007553e-06
1.00010354e-06
1.00014181e-06
1.00019399e-06
1.00026503e-06
1.00036152e-06
1.00049226e-06
1.00066891e-06
1.00090685e-06
1.00122638e-06
1.0016543e-06
1.00222567e-06
1.00298544e-06
1.00399156e-06
1.00531436e-06
1.00700558e-06
1.00904388e-06
1.01119545e-06
1.0000008e-06
1.00000245e-06
1.0000043e-06
1.00000654e-06
1.00000941e-06
1.00001324e-06
1.00001842e-06
1.00002549e-06
1.00003519e-06
1.0000485e-06
1.00006678e-06
1.00009191e-06
1.00012639e-06
1.00017371e-06
1.00023855e-06
1.00032731e-06
1.00044867e-06
1.00061449e-06
1.00084099e-06
1.00115072e-06
1.00157558e-06
1.00216159e-06
1.00297628e-06
1.00411775e-06
1.00572591e-06
1.0079797e-06
1.0109558e-06
1.01433006e-06
1.00000065e-06
1.000002e-06
1.0000035e-06
1.00000533e-06
1.00000769e-06
1.00001083e-06
1.00001509e-06
1.00002093e-06
1.00002896e-06
1.00004001e-06
1.00005524e-06
1.00007624e-06
1.00010519e-06
1.00014508e-06
1.00020002e-06
1.00027565e-06
1.00037979e-06
1.00052325e-06
1.00072133e-06
1.00099611e-06
1.00138077e-06
1.00192754e-06
1.00272256e-06
1.00391054e-06
1.00572254e-06
1.00848317e-06
1.0125845e-06
1.01717276e-06
1.00000048e-06
1.00000147e-06
1.00000259e-06
1.00000394e-06
1.00000569e-06
1.00000803e-06
1.00001121e-06
1.00001556e-06
1.00002157e-06
1.00002985e-06
1.00004129e-06
1.00005711e-06
1.00007897e-06
1.00010917e-06
1.00015091e-06
1.00020859e-06
1.00028832e-06
1.00039868e-06
1.00055197e-06
1.0007663e-06
1.00106976e-06
1.00150885e-06
1.00216619e-06
1.00319634e-06
1.00488444e-06
1.00764964e-06
1.01151082e-06
1.02166191e-06
1.00000024e-06
1.00000074e-06
1.00000125e-06
1.00000181e-06
1.00000243e-06
1.00000313e-06
1.00000394e-06
1.00000488e-06
1.00000598e-06
1.00000725e-06
1.00000872e-06
1.0000104e-06
1.00001232e-06
1.00001448e-06
1.00001689e-06
1.00001956e-06
1.00002246e-06
1.00002557e-06
1.00002887e-06
1.00003231e-06
1.00003582e-06
1.00003934e-06
1.00004279e-06
1.00004607e-06
1.0000491e-06
1.00005179e-06
1.00005405e-06
1.00005581e-06
1.00000025e-06
1.00000076e-06
1.00000128e-06
1.00000185e-06
1.00000248e-06
1.0000032e-06
1.00000403e-06
1.000005e-06
1.00000612e-06
1.00000744e-06
1.00000895e-06
1.0000107e-06
1.00001269e-06
1.00001494e-06
1.00001745e-06
1.00002023e-06
1.00002327e-06
1.00002654e-06
1.00003001e-06
1.00003363e-06
1.00003734e-06
1.00004106e-06
1.00004471e-06
1.00004819e-06
1.00005142e-06
1.00005428e-06
1.00005669e-06
1.00005857e-06
1.00000026e-06
1.0000008e-06
1.00000135e-06
1.00000196e-06
1.00000263e-06
1.0000034e-06
1.00000429e-06
1.00000533e-06
1.00000655e-06
1.00000798e-06
1.00000964e-06
1.00001155e-06
1.00001375e-06
1.00001624e-06
1.00001904e-06
1.00002215e-06
1.00002556e-06
1.00002925e-06
1.00003318e-06
1.0000373e-06
1.00004154e-06
1.00004581e-06
1.00005001e-06
1.00005404e-06
1.00005777e-06
1.0000611e-06
1.0000639e-06
1.0000661e-06
1.00000029e-06
1.00000088e-06
1.00000149e-06
1.00000215e-06
1.0000029e-06
1.00000376e-06
1.00000476e-06
1.00000594e-06
1.00000733e-06
1.00000896e-06
1.00001087e-06
1.0000131e-06
1.00001566e-06
1.00001859e-06
1.0000219e-06
1.00002561e-06
1.00002969e-06
1.00003414e-06
1.00003891e-06
1.00004394e-06
1.00004914e-06
1.0000544e-06
1.00005961e-06
1.00006462e-06
1.00006927e-06
1.00007344e-06
1.00007696e-06
1.00007972e-06
1.00000033e-06
1.00000099e-06
1.00000168e-06
1.00000244e-06
1.00000329e-06
1.00000428e-06
1.00000544e-06
1.00000682e-06
1.00000846e-06
1.0000104e-06
1.00001268e-06
1.00001536e-06
1.00001847e-06
1.00002205e-06
1.00002613e-06
1.00003072e-06
1.00003582e-06
1.00004141e-06
1.00004745e-06
1.00005384e-06
1.0000605e-06
1.00006728e-06
1.00007401e-06
1.00008052e-06
1.0000866e-06
1.00009205e-06
1.00009668e-06
1.00010032e-06
1.00000038e-06
1.00000114e-06
1.00000193e-06
1.00000281e-06
1.0000038e-06
1.00000496e-06
1.00000634e-06
1.00000799e-06
1.00000996e-06
1.00001231e-06
1.0000151e-06
1.00001839e-06
1.00002225e-06
1.00002672e-06
1.00003185e-06
1.00003767e-06
1.00004419e-06
1.00005138e-06
1.00005918e-06
1.00006752e-06
1.00007624e-06
1.00008517e-06
1.0000941e-06
1.00010277e-06
1.0001109e-06
1.00011821e-06
1.00012444e-06
1.00012934e-06
1.00000044e-06
1.00000132e-06
1.00000225e-06
1.00000327e-06
1.00000444e-06
1.00000582e-06
1.00000747e-06
1.00000945e-06
1.00001185e-06
1.00001473e-06
1.00001817e-06
1.00002227e-06
1.00002711e-06
1.00003275e-06
1.00003928e-06
1.00004674e-06
1.00005514e-06
1.00006448e-06
1.0000747e-06
1.00008568e-06
1.00009724e-06
1.00010916e-06
1.00012113e-06
1.0001328e-06
1.00014381e-06
1.00015374e-06
1.00016222e-06
1.00016891e-06
1.00000051e-06
1.00000154e-06
1.00000262e-06
1.00000382e-06
1.00000521e-06
1.00000685e-06
1.00000883e-06
1.00001124e-06
1.00001416e-06
1.0000177e-06
1.00002197e-06
1.00002709e-06
1.00003317e-06
1.00004032e-06
1.00004865e-06
1.00005824e-06
1.00006913e-06
1.00008132e-06
1.00009475e-06
1.00010927e-06
1.00012468e-06
1.00014064e-06
1.00015677e-06
1.00017259e-06
1.00018757e-06
1.00020114e-06
1.00021276e-06
1.00022195e-06
1.00000059e-06
1.00000179e-06
1.00000305e-06
1.00000446e-06
1.0000061e-06
1.00000806e-06
1.00001044e-06
1.00001335e-06
1.00001692e-06
1.00002127e-06
1.00002655e-06
1.00003294e-06
1.00004057e-06
1.00004963e-06
1.00006026e-06
1.00007259e-06
1.00008669e-06
1.0001026e-06
1.00012025e-06
1.00013948e-06
1.00016001e-06
1.00018143e-06
1.00020321e-06
1.00022468e-06
1.0002451e-06
1.00026369e-06
1.00027966e-06
1.00029232e-06
1.00000068e-06
1.00000207e-06
1.00000354e-06
1.0000052e-06
1.00000713e-06
1.00000946e-06
1.00001231e-06
1.00001582e-06
1.00002015e-06
1.00002547e-06
1.00003199e-06
1.00003992e-06
1.00004948e-06
1.00006091e-06
1.00007443e-06
1.00009022e-06
1.00010844e-06
1.00012914e-06
1.00015229e-06
1.00017771e-06
1.00020504e-06
1.00023377e-06
1.00026315e-06
1.0002923e-06
1.00032017e-06
1.00034565e-06
1.00036762e-06
1.00038508e-06
1.00000078e-06
1.00000238e-06
1.00000409e-06
1.00000602e-06
1.00000828e-06
1.00001104e-06
1.00001443e-06
1.00001863e-06
1.00002386e-06
1.00003034e-06
1.00003834e-06
1.00004813e-06
1.00006004e-06
1.00007438e-06
1.00009147e-06
1.00011161e-06
1.00013503e-06
1.00016187e-06
1.00019212e-06
1.00022561e-06
1.00026191e-06
1.00030034e-06
1.00033994e-06
1.00037947e-06
1.00041748e-06
1.0004524e-06
1.00048263e-06
1.00050672e-06
1.0000009e-06
1.00000273e-06
1.00000469e-06
1.00000691e-06
1.00000955e-06
1.00001279e-06
1.00001679e-06
1.0000218e-06
1.00002806e-06
1.00003589e-06
1.00004562e-06
1.00005763e-06
1.00007235e-06
1.00009022e-06
1.00011171e-06
1.00013723e-06
1.00016717e-06
1.00020177e-06
1.00024112e-06
1.00028506e-06
1.00033308e-06
1.00038434e-06
1.00043757e-06
1.00049108e-06
1.00054287e-06
1.0005907e-06
1.00063228e-06
1.00066552e-06
1.00000102e-06
1.0000031e-06
1.00000533e-06
1.00000787e-06
1.00001092e-06
1.00001466e-06
1.00001935e-06
1.00002527e-06
1.00003273e-06
1.0000421e-06
1.00005384e-06
1.00006845e-06
1.0000865e-06
1.0001086e-06
1.00013538e-06
1.0001675e-06
1.0002055e-06
1.00024983e-06
1.00030071e-06
1.00035804e-06
1.00042129e-06
1.0004894e-06
1.00056072e-06
1.000633e-06
1.00070343e-06
1.00076887e-06
1.00082603e-06
1.00087188e-06
1.00000114e-06
1.00000348e-06
1.00000599e-06
1.00000887e-06
1.00001234e-06
1.00001665e-06
1.00002209e-06
1.00002899e-06
1.00003777e-06
1.0000489e-06
1.00006295e-06
1.00008055e-06
1.00010247e-06
1.00012954e-06
1.00016265e-06
1.00020271e-06
1.00025056e-06
1.00030693e-06
1.00037226e-06
1.0004466e-06
1.00052944e-06
1.00061951e-06
1.00071471e-06