/*--------------------------------*- C++ -*----------------------------------*\
| =========                 |                                                 |
| \\      /  F ield         | foam-extend: Open Source CFD                    |
|  \\    /   O peration     | Version:     4.1                                |
|   \\  /    A nd           | Web:         http://www.foam-extend.org         |
|    \\/     M anipulation  |                                                 |
\*---------------------------------------------------------------------------*/
FoamFile
{
    version     2.0;
    format      ascii;
    class       volVectorField;
    location    "0.05";
    object      cellMotionU;
}
// * * * * * * * * * * * * * * * * * * * * * * * * * * * * * * * * * * * * * //

dimensions      [0 1 -1 0 0 0 0];

internalField   nonuniform List<vector> 
35840
(
(-1.28668976e-21 1.45810604e-09 -2.44615058e-22)
(-3.87594779e-21 4.39225092e-09 -7.36865015e-22)
(-6.55730418e-21 7.43047148e-09 -1.24663136e-21)
(-9.45056761e-21 1.07081271e-08 -1.79670352e-21)
(-1.26735723e-20 1.43584176e-08 -2.40949106e-21)
(-1.6343972e-20 1.85143801e-08 -3.10736555e-21)
(-2.05803222e-20 2.33101065e-08 -3.91286614e-21)
(-2.55022716e-20 2.88809559e-08 -4.8487355e-21)
(-3.122971e-20 3.5362587e-08 -5.93775721e-21)
(-3.78807335e-20 4.28886518e-08 -7.20236851e-21)
(-4.5568317e-20 5.15870264e-08 -8.66402691e-21)
(-5.43956244e-20 6.15745011e-08 -1.03423182e-20)
(-6.44499645e-20 7.29499373e-08 -1.22538072e-20)
(-7.57955011e-20 8.57860151e-08 -1.44106514e-20)
(-8.84649662e-20 1.00119853e-07 -1.68190269e-20)
(-1.02450792e-19 1.1594297e-07 -1.9477444e-20)
(-1.17696261e-19 1.33191269e-07 -2.23750675e-20)
(-1.3408745e-19 1.51735919e-07 -2.54901902e-20)
(-1.51446909e-19 1.71376193e-07 -2.87890362e-20)
(-1.69530071e-19 1.91835417e-07 -3.22250868e-20)
(-1.88025415e-19 2.12761143e-07 -3.5739118e-20)
(-2.06559218e-19 2.33730529e-07 -3.92601109e-20)
(-2.24705448e-19 2.54261531e-07 -4.27071377e-20)
(-2.420009e-19 2.73830036e-07 -4.59922414e-20)
(-2.57965136e-19 2.91892424e-07 -4.90242226e-20)
(-2.72124163e-19 3.0791236e-07 -5.17131331e-20)
(-2.84036288e-19 3.21390053e-07 -5.39751781e-20)
(-2.93318257e-19 3.31891834e-07 -5.57376676e-20)
(-3.87652717e-21 4.39292374e-09 -7.36975035e-22)
(-1.16746867e-20 1.32296594e-08 -2.21950518e-21)
(-1.97469476e-20 2.23760955e-08 -3.75416888e-21)
(-2.84568269e-20 3.22429893e-08 -5.41011017e-21)
(-3.81613545e-20 4.32339646e-08 -7.25522681e-21)
(-4.92169213e-20 5.57520339e-08 -9.35728403e-21)
(-6.19827707e-20 7.02035306e-08 -1.17845775e-20)
(-7.68217379e-20 8.69989348e-08 -1.46060722e-20)
(-9.40978031e-20 1.06550094e-07 -1.78909356e-20)
(-1.14170045e-19 1.29263375e-07 -2.17073861e-20)
(-1.37382655e-19 1.55528348e-07 -2.61207919e-20)
(-1.64050788e-19 1.85701778e-07 -3.11909806e-20)
(-1.94442272e-19 2.2008691e-07 -3.69687587e-20)
(-2.28755466e-19 2.58908412e-07 -4.34917037e-20)
(-2.67094031e-19 3.02283812e-07 -5.07793692e-20)
(-3.09439838e-19 3.50192836e-07 -5.88281395e-20)
(-3.55625823e-19 4.02446682e-07 -6.76060803e-20)
(-4.05311174e-19 4.58659936e-07 -7.70482349e-20)
(-4.57961668e-19 5.18228312e-07 -8.70529065e-20)
(-5.12838295e-19 5.80315772e-07 -9.74795191e-20)
(-5.68997248e-19 6.43854518e-07 -1.08148642e-19)
(-6.25303937e-19 7.07560838e-07 -1.18844676e-19)
(-6.80462761e-19 7.69968802e-07 -1.29321533e-19)
(-7.33063029e-19 8.29482224e-07 -1.39311373e-19)
(-7.81639681e-19 8.84443372e-07 -1.48536134e-19)
(-8.24745609e-19 9.33214808e-07 -1.56721258e-19)
(-8.61030689e-19 9.7426882e-07 -1.63610667e-19)
(-8.89321487e-19 1.00627762e-06 -1.68981861e-19)
(-6.55942356e-21 7.43295388e-09 -1.24703366e-21)
(-1.97503894e-20 2.23801565e-08 -3.75482196e-21)
(-3.34022885e-20 3.78481101e-08 -6.35028011e-21)
(-4.81389794e-20 5.45418953e-08 -9.15206511e-21)
(-6.45730467e-20 7.31541393e-08 -1.22766693e-20)
(-8.33165622e-20 9.43770452e-08 -1.58404687e-20)
(-1.04987685e-19 1.1890983e-07 -1.99609756e-20)
(-1.30212467e-19 1.47460752e-07 -2.47571783e-20)
(-1.59621124e-19 1.80742882e-07 -3.03488287e-20)
(-1.93838064e-19 2.19462806e-07 -3.68545412e-20)
(-2.33465026e-19 2.64301544e-07 -4.43885829e-20)
(-2.7905692e-19 3.15887201e-07 -5.30562765e-20)
(-3.31090308e-19 3.74759287e-07 -6.29480028e-20)
(-3.89924967e-19 4.41325225e-07 -7.41318944e-20)
(-4.55759757e-19 5.1581039e-07 -8.66454478e-20)
(-5.2858485e-19 5.98204045e-07 -1.00486453e-19)
(-6.08133437e-19 6.88204676e-07 -1.1560383e-19)
(-6.93837011e-19 7.85169376e-07 -1.31889161e-19)
(-7.8478925e-19 8.88072961e-07 -1.4916986e-19)
(-8.79724065e-19 9.9548312e-07 -1.67205053e-19)
(-9.7701343e-19 1.10555795e-06 -1.85685221e-19)
(-1.0746899e-18 1.21607143e-06 -2.0423653e-19)
(-1.1704972e-18 1.32447066e-06 -2.22430489e-19)
(-1.26196975e-18 1.42796587e-06 -2.39799085e-19)
(-1.34653909e-18 1.5236508e-06 -2.55854997e-19)
(-1.42166143e-18 1.60864711e-06 -2.70115789e-19)
(-1.48495766e-18 1.68026274e-06 -2.82130431e-19)
(-1.53435443e-18 1.73615162e-06 -2.91505994e-19)
(-9.45489213e-21 1.07132496e-08 -1.79752396e-21)
(-2.84656585e-20 3.22535501e-08 -5.41178493e-21)
(-4.81455996e-20 5.45499459e-08 -9.15331948e-21)
(-6.94135739e-20 7.8641184e-08 -1.31968818e-20)
(-9.31728185e-20 1.055487e-07 -1.77142258e-20)
(-1.20328187e-19 1.36295917e-07 -2.2877385e-20)
(-1.51797141e-19 1.71920644e-07 -2.88607569e-20)
(-1.88513572e-19 2.13479384e-07 -3.58418237e-20)
(-2.31423352e-19 2.62042293e-07 -4.40002977e-20)
(-2.81470472e-19 3.18677494e-07 -5.35154777e-20)
(-3.39572748e-19 3.84423595e-07 -6.45616201e-20)
(-4.06586323e-19 4.60249522e-07 -7.73011796e-20)
(-4.8325867e-19 5.47001338e-07 -9.18758669e-20)
(-5.701706e-19 6.4533662e-07 -1.08395619e-19)
(-6.67668834e-19 7.55648141e-07 -1.26925786e-19)
(-7.75792107e-19 8.77980237e-07 -1.47473096e-19)
(-8.9419534e-19 1.01194298e-06 -1.69971279e-19)
(-1.02207812e-18 1.15663121e-06 -1.94267518e-19)
(-1.15812519e-18 1.3105572e-06 -2.20111221e-19)
(-1.30046787e-18 1.47160694e-06 -2.47146771e-19)
(-1.44667534e-18 1.63703027e-06 -2.7491199e-19)
(-1.59378413e-18 1.80347425e-06 -3.02843839e-19)
(-1.73837163e-18 1.96706633e-06 -3.30292488e-19)
(-1.87667589e-18 2.12354991e-06 -3.56544115e-19)
(-2.00475873e-18 2.26846888e-06 -3.808519e-19)
(-2.11870377e-18 2.39739177e-06 -4.0247356e-19)
(-2.21483531e-18 2.50615941e-06 -4.20712777e-19)
(-2.28993978e-18 2.5911355e-06 -4.3496105e-19)
(-1.26805947e-20 1.43668362e-08 -2.41082257e-21)
(-3.81770019e-20 4.3252934e-08 -7.2581921e-21)
(-6.45885846e-20 7.31733355e-08 -1.22796111e-20)
(-9.31825909e-20 1.05561013e-07 -1.77160743e-20)
(-1.25207459e-19 1.4182803e-07 -2.38049598e-20)
(-1.61918968e-19 1.83394872e-07 -3.07850015e-20)
(-2.04597627e-19 2.31710068e-07 -3.88995854e-20)
(-2.54556042e-19 2.88258516e-07 -4.83981386e-20)
(-3.1313465e-19 3.5455667e-07 -5.95353037e-20)
(-3.81684131e-19 4.32132655e-07 -7.25675762e-20)
(-4.61532869e-19 5.22489479e-07 -8.77470987e-20)
(-5.53938095e-19 6.27049783e-07 -1.05312352e-19)
(-6.60019961e-19 7.47081248e-07 -1.25475602e-19)
(-7.80678811e-19 8.83602994e-07 -1.48407162e-19)
(-9.16497461e-19 1.037275e-06 -1.74216816e-19)
(-1.06763232e-18 1.20827485e-06 -2.02933148e-19)
(-1.23369961e-18 1.39616897e-06 -2.34481964e-19)
(-1.41366547e-18 1.59978826e-06 -2.686655e-19)
(-1.60575147e-18 1.81712107e-06 -3.05144599e-19)
(-1.80736879e-18 2.04523869e-06 -3.43426374e-19)
(-2.01509516e-18 2.2802693e-06 -3.82860041e-19)
(-2.22470803e-18 2.51743542e-06 -4.22643428e-19)
(-2.43128397e-18 2.75116636e-06 -4.61842046e-19)
(-2.62936895e-18 2.97529093e-06 -4.99421553e-19)
(-2.81321645e-18 3.18330692e-06 -5.34292985e-19)
(-2.97708132e-18 3.36871352e-06 -5.65368422e-19)
(-3.11554811e-18 3.52538297e-06 -5.91623066e-19)
(-3.22386557e-18 3.64793902e-06 -6.12158346e-19)
(-1.63541077e-20 1.85266738e-08 -3.10928632e-21)
(-4.92406164e-20 5.57811324e-08 -9.36177165e-21)
(-8.33430662e-20 9.44102519e-08 -1.58454833e-20)
(-1.20350583e-19 1.3632454e-07 -2.28816183e-20)
(-1.61932353e-19 1.83412268e-07 -3.07875294e-20)
(-2.09776221e-19 2.37582837e-07 -3.98840591e-20)
(-2.65615393e-19 3.00796932e-07 -5.0500601e-20)
(-3.31241681e-19 3.75081498e-07 -6.29775942e-20)
(-4.08502925e-19 4.62526881e-07 -7.76660073e-20)
(-4.99282124e-19 5.65263255e-07 -9.49233356e-20)
(-6.05455786e-19 6.85413576e-07 -1.15105645e-19)
(-7.28829176e-19 8.25020363e-07 -1.3855522e-19)
(-8.7104677e-19 9.8594443e-07 -1.655835e-19)
(-1.0334776e-18 1.16973516e-06 -1.96449253e-19)
(-1.21707725e-18 1.37747432e-06 -2.31332336e-19)
(-1.42223103e-18 1.60959862e-06 -2.7030392e-19)
(-1.64858668e-18 1.86571031e-06 -3.13294768e-19)
(-1.89488862e-18 2.14438959e-06 -3.60063903e-19)
(-2.1588302e-18 2.44302732e-06 -4.10170762e-19)
(-2.43694361e-18 2.75770043e-06 -4.62954607e-19)
(-2.72454924e-18 3.08311457e-06 -5.17525307e-19)
(-3.01578581e-18 3.41263809e-06 -5.72769459e-19)
(-3.30373817e-18 3.73844678e-06 -6.27375066e-19)
(-3.5806725e-18 4.05178986e-06 -6.79876442e-19)
(-3.83837627e-18 4.34337478e-06 -7.28718818e-19)
(-4.06858658e-18 4.60385184e-06 -7.72339428e-19)
(-4.26347558e-18 4.82436354e-06 -8.09259127e-19)
(-4.4161494e-18 4.99710919e-06 -8.38176317e-19)
(-2.05939588e-20 2.33268225e-08 -3.91544906e-21)
(-6.20158117e-20 7.02445527e-08 -1.17908318e-20)
(-1.05027591e-19 1.18960349e-07 -1.99685221e-20)
(-1.51835736e-19 1.71970393e-07 -2.88680491e-20)
(-2.0462896e-19 2.31751025e-07 -3.89055011e-20)
(-2.65634201e-19 3.00821703e-07 -5.05041508e-20)
(-3.37156665e-19 3.81790239e-07 -6.41020382e-20)
(-4.21602466e-19 4.77378448e-07 -8.01562373e-20)
(-5.21480179e-19 5.90423976e-07 -9.91431007e-20)
(-6.39377678e-19 7.23854209e-07 -1.21553794e-19)
(-7.77910807e-19 8.80628311e-07 -1.47884466e-19)
(-9.39639848e-19 1.06364281e-06 -1.78620284e-19)
(-1.12695061e-18 1.27559712e-06 -2.14212747e-19)
(-1.34189844e-18 1.51881709e-06 -2.55049974e-19)
(-1.5860164e-18 1.79503792e-06 -3.014202e-19)
(-1.8600926e-18 2.10515216e-06 -3.53469493e-19)
(-2.16392706e-18 2.44893456e-06 -4.11155673e-19)
(-2.49608445e-18 2.8247621e-06 -4.7420159e-19)
(-2.85366548e-18 3.22935531e-06 -5.42052114e-19)
(-3.23212594e-18 3.65757336e-06 -6.13840349e-19)
(-3.62517635e-18 4.10230046e-06 -6.88369323e-19)
(-4.02479584e-18 4.55446152e-06 -7.64115435e-19)
(-4.42138909e-18 5.00319971e-06 -8.39259039e-19)
(-4.80410445e-18 5.43623644e-06 -9.1174539e-19)
(-5.16131364e-18 5.84041413e-06 -9.79375857e-19)
(-5.48123144e-18 6.20239752e-06 -1.03992514e-18)
(-5.75262977e-18 6.5094816e-06 -1.09127579e-18)
(-5.96557982e-18 6.75043151e-06 -1.13155745e-18)
(-2.55196897e-20 2.89025094e-08 -4.85203315e-21)
(-7.68655837e-20 8.70538248e-08 -1.46143684e-20)
(-1.30269327e-19 1.47533098e-07 -2.47679284e-20)
(-1.88573977e-19 2.13557312e-07 -3.58532359e-20)
(-2.54612553e-19 2.88332144e-07 -4.84088101e-20)
(-3.31287798e-19 3.75141824e-07 -6.29863016e-20)
(-4.21630581e-19 4.77415156e-07 -8.01615464e-20)
(-5.28837519e-19 5.98768147e-07 -1.00541652e-19)
(-6.56280473e-19 7.43014881e-07 -1.24766713e-19)
(-8.07482883e-19 9.14140912e-07 -1.53505203e-19)
(-9.86059018e-19 1.1162347e-06 -1.87442285e-19)
(-1.19560891e-18 1.35336891e-06 -2.27259689e-19)
(-1.43956347e-18 1.62942524e-06 -2.73606104e-19)
(-1.72097554e-18 1.94785807e-06 -3.27057321e-19)
(-2.04225664e-18 2.31139657e-06 -3.88066099e-19)
(-2.40486422e-18 2.72169075e-06 -4.56902746e-19)
(-2.80895183e-18 3.17891554e-06 -5.33588827e-19)
(-3.25300343e-18 3.68135679e-06 -6.17828106e-19)
(-3.73348313e-18 4.22501494e-06 -7.08940756e-19)
(-4.24454219e-18 4.80327324e-06 -8.05808779e-19)
(-4.77783275e-18 5.40668695e-06 -9.06842039e-19)
(-5.32248117e-18 6.02295314e-06 -1.00997481e-18)
(-5.86526919e-18 6.63711562e-06 -1.1127017e-18)
(-6.39105606e-18 7.2320426e-06 -1.212159e-18)
(-6.88344959e-18 7.78918608e-06 -1.30525245e-18)
(-7.32569922e-18 8.28959235e-06 -1.38882601e-18)
(-7.70174527e-18 8.71508936e-06 -1.45985901e-18)
(-7.99732363e-18 9.04953667e-06 -1.51567269e-18)
(-3.1250571e-20 3.53886731e-08 -5.94170462e-21)
(-9.41536062e-20 1.06620393e-07 -1.7901491e-20)
(-1.59700596e-19 1.80843858e-07 -3.03638547e-20)
(-2.31515155e-19 2.62159833e-07 -4.40176487e-20)
(-3.13228675e-19 3.54677712e-07 -5.95530704e-20)
(-4.08591075e-19 4.62640427e-07 -7.76826639e-20)
(-5.21552009e-19 5.90516289e-07 -9.91566755e-20)
(-6.56323732e-19 7.43070219e-07 -1.24774891e-19)
(-8.17404276e-19 9.25390158e-07 -1.55390886e-19)
(-1.00955538e-18 1.14286233e-06 -1.91907635e-19)
(-1.23773486e-18 1.401095e-06 -2.35264409e-19)
(-1.50696789e-18 1.70577298e-06 -2.86412015e-19)
(-1.82214942e-18 2.06243427e-06 -3.46274928e-19)
(-2.1877684e-18 2.4761581e-06 -4.15698578e-19)
(-2.60755105e-18 2.95116119e-06 -4.95381317e-19)
(-3.08402615e-18 3.49030585e-06 -5.85791761e-19)
(-3.61802648e-18 4.0945357e-06 -6.87074298e-19)
(-4.20815285e-18 4.762269e-06 -7.98947941e-19)
(-4.8502426e-18 5.48879712e-06 -9.20606648e-19)
(-5.53690174e-18 6.26575498e-06 -1.05063241e-18)
(-6.25717459e-18 7.08074712e-06 -1.18693517e-18)
(-6.9964332e-18 7.91722258e-06 -1.32673491e-18)
(-7.73656585e-18 8.75468815e-06 -1.4666006e-18)
(-8.45652492e-18 9.56932832e-06 -1.60255667e-18)
(-9.13325754e-18 1.03350584e-05 -1.73026074e-18)
(-9.74298888e-18 1.10249767e-05 -1.84524597e-18)
(-1.02627644e-17 1.16131096e-05 -1.94320991e-18)
(-1.06720979e-17 1.20762762e-05 -2.02032107e-18)
(-3.79020866e-20 4.2915982e-08 -7.20640413e-21)
(-1.14236257e-19 1.29347487e-07 -2.17199046e-20)
(-1.93949753e-19 2.19603563e-07 -3.6875667e-20)
(-2.81610516e-19 3.1885413e-07 -5.35419665e-20)
(-3.81836387e-19 4.32325146e-07 -7.25963718e-20)
(-4.99438502e-19 5.65460457e-07 -9.49529154e-20)
(-6.39521053e-19 7.24034641e-07 -1.21580918e-19)
(-8.07595011e-19 9.14281835e-07 -1.53526416e-19)
(-1.00962224e-18 1.14294591e-06 -1.91920288e-19)
(-1.25199345e-18 1.41725581e-06 -2.37973712e-19)
(-1.54146356e-18 1.74485278e-06 -2.92965446e-19)
(-1.88499735e-18 2.13361596e-06 -3.58211959e-19)
(-2.28952437e-18 2.59138526e-06 -4.3502025e-19)
(-2.76158031e-18 3.12555563e-06 -5.24619076e-19)
(-3.30683029e-18 3.74253767e-06 -6.28067851e-19)
(-3.92947122e-18 4.44708125e-06 -7.46142836e-19)
(-4.63152862e-18 5.24147963e-06 -8.79203782e-19)
(-5.41207891e-18 6.12468933e-06 -1.02704723e-18)
(-6.26645085e-18 7.09142626e-06 -1.18875699e-18)
(-7.1854885e-18 8.13133165e-06 -1.36256763e-18)
(-8.15498432e-18 9.22833045e-06 -1.54576176e-18)
(-9.15540941e-18 1.03603261e-05 -1.7346248e-18)
(-1.016207e-17 1.14993777e-05 -1.92448102e-18)
(-1.1145797e-17 1.26124801e-05 -2.10982971e-18)
(-1.20742231e-17 1.36630095e-05 -2.28459032e-18)
(-1.29136214e-17 1.46128033e-05 -2.44244946e-18)
(-1.36311734e-17 1.54247269e-05 -2.57728429e-18)
(-1.41974352e-17 1.60654641e-05 -2.6836181e-18)
(-4.55775095e-20 5.16012977e-08 -8.66574474e-21)
(-1.37445962e-19 1.55611277e-07 -2.61327415e-20)
(-2.33628055e-19 2.64503866e-07 -4.44194428e-20)
(-3.39791513e-19 3.84694058e-07 -6.46030383e-20)
(-4.61775029e-19 5.22789636e-07 -8.77929407e-20)
(-6.05727306e-19 6.85748068e-07 -1.1515706e-19)
(-7.78176365e-19 8.80954916e-07 -1.47934756e-19)
(-9.86283798e-19 1.11651175e-06 -1.87484847e-19)
(-1.23791017e-18 1.40131045e-06 -2.35297603e-19)
(-1.54156743e-18 1.74497975e-06 -2.92985115e-19)
(-1.90639751e-18 2.15786141e-06 -3.6227644e-19)
(-2.3419816e-18 2.65079471e-06 -4.44980405e-19)
(-2.85805206e-18 3.23479074e-06 -5.42929738e-19)
(-3.46403063e-18 3.9205099e-06 -6.57892108e-19)
(-4.16840342e-18 4.71755468e-06 -7.91450256e-19)
(-4.97790773e-18 5.63354937e-06 -9.44846775e-19)
(-5.89655226e-18 6.67303119e-06 -1.11879805e-18)
(-6.92450181e-18 7.83618801e-06 -1.31328388e-18)
(-8.05689007e-18 9.11751482e-06 -1.5273255e-18)
(-9.28267349e-18 1.05045167e-05 -1.75877404e-18)
(-1.05836834e-17 1.19766361e-05 -2.00413952e-18)
(-1.19340698e-17 1.3504624e-05 -2.25849686e-18)
(-1.33003454e-17 1.50505892e-05 -2.51550675e-18)
(-1.46422138e-17 1.65689362e-05 -2.76758433e-18)
(-1.59142989e-17 1.80083214e-05 -3.00623371e-18)
(-1.70687658e-17 1.93146202e-05 -3.22254339e-18)
(-1.805866e-17 2.04347033e-05 -3.40780657e-18)
(-1.88416093e-17 2.13206271e-05 -3.55419954e-18)
(-5.43003186e-20 6.14711858e-08 -1.03241621e-20)
(-1.64053154e-19 1.85717811e-07 -3.11913259e-20)
(-2.79322935e-19 3.16209542e-07 -5.31066874e-20)
(-4.06942668e-19 4.60680471e-07 -7.73687149e-20)
(-5.54304828e-19 6.27496986e-07 -1.05381826e-19)
(-7.29302729e-19 8.25590768e-07 -1.38644981e-19)
(-9.40121683e-19 1.06422254e-06 -1.78711615e-19)
(-1.19601549e-18 1.35386102e-06 -2.27336729e-19)
(-1.50732692e-18 1.70620644e-06 -2.8648004e-19)
(-1.88527285e-18 2.1339478e-06 -3.58264153e-19)
(-2.34215175e-18 2.6509982e-06 -4.45012641e-19)
(-2.89103229e-18 3.27214273e-06 -5.4918918e-19)
(-3.54547461e-18 4.01272343e-06 -6.73342509e-19)
(-4.31892329e-18 4.88795242e-06 -8.19988794e-19)
(-5.22391676e-18 5.91201727e-06 -9.91459112e-19)
(-6.27098723e-18 7.096836e-06 -1.18968868e-18)
(-7.46731605e-18 8.45053538e-06 -1.4159609e-18)
(-8.81515758e-18 9.97566713e-06 -1.67060981e-18)
(-1.03100938e-17 1.16672328e-05 -1.95269409e-18)
(-1.19392747e-17 1.35106927e-05 -2.25967339e-18)
(-1.36798672e-17 1.54802108e-05 -2.58713011e-18)
(-1.54980028e-17 1.75374643e-05 -2.92859156e-18)
(-1.73485555e-17 1.96313926e-05 -3.27551291e-18)
(-1.91760634e-17 2.16992405e-05 -3.61747602e-18)
(-2.09170231e-17 2.36691546e-05 -3.94264041e-18)
(-2.25036048e-17 2.54643866e-05 -4.2384472e-18)
(-2.38685655e-17 2.70088532e-05 -4.49252767e-18)
(-2.49508303e-17 2.82334501e-05 -4.69371512e-18)
(-6.44679084e-20 7.29755411e-08 -1.22571779e-20)
(-1.94585858e-19 2.20264906e-07 -3.69959386e-20)
(-3.31364017e-19 3.75093781e-07 -6.29998516e-20)
(-4.83482336e-19 5.47286845e-07 -9.19181445e-20)
(-6.60481133e-19 7.47641332e-07 -1.25562974e-19)
(-8.71904853e-19 9.86957326e-07 -1.65746283e-19)
(-1.127834e-18 1.27663984e-06 -2.14380318e-19)
(-1.44023316e-18 1.63022483e-06 -2.73733055e-19)
(-1.82283444e-18 2.06324737e-06 -3.46404786e-19)
(-2.2900873e-18 2.59205391e-06 -4.3512693e-19)
(-2.8585191e-18 3.23534228e-06 -5.4301823e-19)
(-3.54574574e-18 4.01304263e-06 -6.73393862e-19)
(-4.37052814e-18 4.94638147e-06 -8.29772349e-19)
(-5.35183783e-18 6.05682448e-06 -1.01569376e-18)
(-6.50796935e-18 7.36507191e-06 -1.23454644e-18)
(-7.8550222e-18 8.88934068e-06 -1.48927461e-18)
(-9.40509952e-18 1.06433257e-05 -1.78203404e-18)
(-1.11641257e-17 1.26337303e-05 -2.11377909e-18)
(-1.31293063e-17 1.48573917e-05 -2.48378851e-18)
(-1.52864642e-17 1.72982671e-05 -2.88917688e-18)
(-1.76075469e-17 1.99246132e-05 -3.32445041e-18)
(-2.00487417e-17 2.26868544e-05 -3.78119e-18)
(-2.25497103e-17 2.55167172e-05 -4.24795573e-18)
(-2.50344682e-17 2.83282255e-05 -4.7105037e-18)
(-2.7414341e-17 3.10210468e-05 -5.15238358e-18)
(-2.95931792e-17 3.34863919e-05 -5.55593314e-18)
(-3.14745821e-17 3.56151889e-05 -5.90360776e-18)
(-3.2970347e-17 3.73076421e-05 -6.17949183e-18)
(-7.58336893e-20 8.58352275e-08 -1.44178662e-20)
(-2.28890563e-19 2.59078861e-07 -4.35172553e-20)
(-3.90169058e-19 4.41629588e-07 -7.41780875e-20)
(-5.70538356e-19 6.45789939e-07 -1.08465253e-19)
(-7.81364793e-19 8.84423525e-07 -1.48537228e-19)
(-1.03434391e-18 1.17076467e-06 -1.96613554e-19)
(-1.34251533e-18 1.51956678e-06 -2.55166856e-19)
(-1.72186417e-18 1.94891526e-06 -3.27225757e-19)
(-2.18910331e-18 2.47771768e-06 -4.15951737e-19)
(-2.76259266e-18 3.12674496e-06 -5.2481094e-19)
(-3.46505899e-18 3.92170956e-06 -6.58086961e-19)
(-4.31965138e-18 4.8888022e-06 -8.20126662e-19)
(-5.35229306e-18 6.05735337e-06 -1.0157799e-18)
(-6.58935484e-18 7.4572006e-06 -1.24994996e-18)
(-8.05726038e-18 9.11824157e-06 -1.52750921e-18)
(-9.78012286e-18 1.10677596e-05 -1.85284194e-18)
(-1.17774733e-17 1.33278526e-05 -2.22940648e-18)
(-1.40613334e-17 1.59121209e-05 -2.65917887e-18)
(-1.66325349e-17 1.88215023e-05 -3.14196486e-18)
(-1.94767541e-17 2.20397854e-05 -3.67467439e-18)
(-2.2560572e-17 2.55291525e-05 -4.25062399e-18)
(-2.58282264e-17 2.92265058e-05 -4.85899565e-18)
(-2.91998272e-17 3.30414487e-05 -5.48459467e-18)
(-3.25718846e-17 3.68568849e-05 -6.10805398e-18)
(-3.58209442e-17 4.05331315e-05 -6.70660757e-18)
(-3.88107993e-17 4.391608e-05 -7.25548504e-18)
(-4.14030852e-17 4.68491822e-05 -7.72985376e-18)
(-4.3470126e-17 4.91879849e-05 -8.10707951e-18)
(-8.85041522e-20 1.00170833e-07 -1.68264269e-20)
(-2.67218138e-19 3.02443719e-07 -5.08028175e-20)
(-4.55980987e-19 5.16092037e-07 -8.66872725e-20)
(-6.68011315e-19 7.56077327e-07 -1.26990584e-19)
(-9.17013965e-19 1.03790959e-06 -1.74314632e-19)
(-1.21774485e-18 1.37828622e-06 -2.31458821e-19)
(-1.58681225e-18 1.79599884e-06 -3.01571009e-19)
(-2.04348868e-18 2.31285236e-06 -3.88299715e-19)
(-2.60845321e-18 2.95224225e-06 -4.95552272e-19)
(-3.30829288e-18 3.74424888e-06 -6.28344942e-19)
(-4.17063489e-18 4.72012918e-06 -7.91873058e-19)
(-5.22537199e-18 5.9137041e-06 -9.91734542e-19)
(-6.50925639e-18 7.3665568e-06 -1.2347898e-18)
(-8.05780813e-18 9.11887639e-06 -1.5276126e-18)
(-9.90912534e-18 1.12137689e-05 -1.87719428e-18)
(-1.20985573e-17 1.36912293e-05 -2.28991643e-18)
(-1.4656533e-17 1.65856837e-05 -2.77112253e-18)
(-1.76048345e-17 1.99217725e-05 -3.3244032e-18)
(-2.09511583e-17 2.3708197e-05 -3.9505757e-18)
(-2.46833857e-17 2.79312366e-05 -4.64663695e-18)
(-2.87634302e-17 3.25477893e-05 -5.40468033e-18)
(-3.31218214e-17 3.74792446e-05 -6.2110032e-18)
(-3.76541111e-17 4.26074191e-05 -7.04561038e-18)
(-4.22204298e-17 4.77740564e-05 -7.88234279e-18)
(-4.66495993e-17 5.27854806e-05 -8.68984713e-18)
(-5.07488786e-17 5.74236229e-05 -9.43351159e-18)
(-5.43194129e-17 6.14635007e-05 -1.00782955e-17)
(-5.71758543e-17 6.46954146e-05 -1.05921143e-17)
(-1.0248648e-19 1.15990564e-07 -1.94841748e-20)
(-3.09549953e-19 3.50338617e-07 -5.88489159e-20)
(-5.2877861e-19 5.98457473e-07 -1.00523036e-19)
(-7.76087146e-19 8.78359845e-07 -1.47528849e-19)
(-1.0680536e-18 1.20880714e-06 -2.03012827e-19)
(-1.42279209e-18 1.61029688e-06 -2.70410109e-19)
(-1.86082361e-18 2.10604817e-06 -3.53607922e-19)
(-2.4058588e-18 2.72288785e-06 -4.57091187e-19)
(-3.08527903e-18 3.49179526e-06 -5.86029167e-19)
(-3.93153631e-18 4.44948684e-06 -7.46534231e-19)
(-4.97926439e-18 5.63514759e-06 -9.45103773e-19)
(-6.27317386e-18 7.09936507e-06 -1.19010207e-18)
(-7.85822746e-18 8.8930115e-06 -1.48988029e-18)
(-9.78138838e-18 1.10692224e-05 -1.8530803e-18)
(-1.20993108e-17 1.3692098e-05 -2.29005769e-18)
(-1.48621488e-17 1.68183811e-05 -2.80978231e-18)
(-1.81158003e-17 2.04999965e-05 -3.42022603e-18)
(-2.18973744e-17 2.47789214e-05 -4.12747694e-18)
(-2.62263941e-17 2.96772325e-05 -4.93407847e-18)
(-3.10971958e-17 3.51885075e-05 -5.83763972e-18)
(-3.64692734e-17 4.12669022e-05 -6.82914011e-18)
(-4.22585473e-17 4.78172746e-05 -7.8915098e-18)
(-4.83307184e-17 5.46876674e-05 -8.99871637e-18)
(-5.44986875e-17 6.16663902e-05 -1.01157044e-17)
(-6.05264469e-17 6.84864229e-05 -1.11995541e-17)
(-6.61417485e-17 7.48397479e-05 -1.22021334e-17)
(-7.10583935e-17 8.0402567e-05 -1.30742053e-17)
(-7.50063007e-17 8.48693193e-05 -1.37704989e-17)
(-1.1772745e-19 1.33234274e-07 -2.23809396e-20)
(-3.55721233e-19 4.02577327e-07 -6.76240509e-20)
(-6.08299913e-19 6.8842978e-07 -1.15635209e-19)
(-8.94446291e-19 1.01227641e-06 -1.70018627e-19)
(-1.23405393e-18 1.39663053e-06 -2.34548884e-19)
(-1.64906659e-18 1.86632322e-06 -3.13385492e-19)
(-2.16456759e-18 2.44973623e-06 -4.11276856e-19)
(-2.8098102e-18 3.17996817e-06 -5.33751328e-19)
(-3.61916339e-18 4.09590514e-06 -6.87289604e-19)
(-4.63308149e-18 5.24331835e-06 -8.79497891e-19)
(-5.89841987e-18 6.67522158e-06 -1.1191516e-18)
(-7.47037202e-18 8.45406297e-06 -1.41653907e-18)
(-9.40626726e-18 1.06447066e-05 -1.78225495e-18)
(-1.17790279e-17 1.33296588e-05 -2.22969759e-18)
(-1.46588839e-17 1.65883765e-05 -2.77156215e-18)
(-1.81186424e-17 2.05032293e-05 -3.42075742e-18)
(-2.22254076e-17 2.51501295e-05 -4.18877483e-18)
(-2.70407207e-17 3.05986912e-05 -5.08563818e-18)
(-3.26027845e-17 3.68921184e-05 -6.11653142e-18)
(-3.89197832e-17 4.40396505e-05 -7.28057556e-18)
(-4.59536254e-17 5.19981707e-05 -8.56796013e-18)
(-5.36066304e-17 6.06571474e-05 -9.95781502e-18)
(-6.17099687e-17 6.98255576e-05 -1.14166525e-17)
(-7.00168863e-17 7.92242231e-05 -1.28979294e-17)
(-7.82046181e-17 8.84879735e-05 -1.43433259e-17)
(-8.58897509e-17 9.71830269e-05 -1.56863195e-17)
(-9.26597413e-17 0.000104842645 -1.68581156e-17)
(-9.81190381e-17 0.000111019317 -1.77952465e-17)
(-1.34114178e-19 1.51774306e-07 -2.54952114e-20)
(-4.05392669e-19 4.58776139e-07 -7.7063552e-20)
(-6.93978675e-19 7.85368639e-07 -1.31915809e-19)
(-1.02229104e-18 1.15692492e-06 -1.94307616e-19)
(-1.41396623e-18 1.60019378e-06 -2.68722212e-19)
(-1.89529991e-18 2.14493088e-06 -3.60141549e-19)
(-2.49663868e-18 2.82547375e-06 -4.7430633e-19)
(-3.25374556e-18 3.68228718e-06 -6.17968467e-19)
(-4.20913755e-18 4.76347713e-06 -7.9913427e-19)
(-5.41337375e-18 6.12624854e-06 -1.02729227e-18)
(-6.92613224e-18 7.83812386e-06 -1.31359233e-18)
(-8.81718538e-18 9.9780463e-06 -1.67099315e-18)
(-1.11658438e-17 1.26357498e-05 -2.11410328e-18)
(-1.40625931e-17 1.59136098e-05 -2.65941557e-18)
(-1.76106045e-17 1.99283512e-05 -3.32548094e-18)
(-2.1907446e-17 2.47903519e-05 -4.1293578e-18)
(-2.70449762e-17 3.0603524e-05 -5.08642892e-18)
(-3.31273849e-17 3.7485727e-05 -6.2136279e-18)
(-4.02177356e-17 4.55082843e-05 -7.51932075e-18)
(-4.83515741e-17 5.47113857e-05 -9.00581888e-18)
(-5.75018485e-17 6.50644026e-05 -1.06630757e-17)
(-6.75618711e-17 7.64466147e-05 -1.2466074e-17)
(-7.83260269e-17 8.86253874e-05 -1.4372288e-17)
(-8.94754184e-17 0.000101239929 -1.63205878e-17)
(-1.00573842e-16 0.000113796738 -1.8232431e-17)
(-1.11083981e-16 0.000125687912 -2.00165898e-17)
(-1.20410286e-16 0.000136239669 -2.15776634e-17)
(-1.2796934e-16 0.000144791944 -2.28274463e-17)
(-1.51469535e-19 1.71410307e-07 -2.87932756e-20)
(-4.58030588e-19 5.18331403e-07 -8.70658267e-20)
(-7.84908973e-19 8.88249343e-07 -1.49192326e-19)
(-1.1583053e-18 1.31081673e-06 -2.20145065e-19)
(-1.60600684e-18 1.81747937e-06 -3.05192659e-19)
(-2.15918191e-18 2.44350677e-06 -4.10237051e-19)
(-2.85414277e-18 3.22998704e-06 -5.4214219e-19)
(-3.73412517e-18 4.2258409e-06 -7.09062048e-19)
(-4.85109922e-18 5.48987083e-06 -9.20768579e-19)
(-6.26758402e-18 7.09281464e-06 -1.18897124e-18)
(-8.05837166e-18 9.11929581e-06 -1.52760553e-18)
(-1.03120372e-17 1.16695313e-05 -1.95306101e-18)
(-1.31318907e-17 1.48604073e-05 -2.48427543e-18)
(-1.66367584e-17 1.88263614e-05 -3.14275843e-18)
(-2.0960358e-17 2.37186734e-05 -3.95230029e-18)
(-2.62319883e-17 2.96836144e-05 -4.93512734e-18)
(-3.26122541e-17 3.69028693e-05 -6.11827737e-18)
(-4.0230304e-17 4.55225237e-05 -7.52163132e-18)
(-4.91859299e-17 5.56554473e-05 -9.15796044e-18)
(-5.9573315e-17 6.74081692e-05 -1.10371443e-17)
(-7.1388219e-17 8.07758715e-05 -1.31492204e-17)
(-8.4525834e-17 9.56399703e-05 -1.54647767e-17)
(-9.87472105e-17 0.00011173013 -1.79304882e-17)
(-1.13652675e-16 0.000128594187 -2.04670761e-17)
(-1.28663233e-16 0.000145577097 -2.29698557e-17)
(-1.43032154e-16 0.000161834038 -2.53149153e-17)
(-1.55898971e-16 0.000176391498 -2.73712523e-17)
(-1.66394597e-16 0.000188266198 -2.90177203e-17)
(-1.69549019e-19 1.91865681e-07 -3.22286256e-20)
(-5.12896021e-19 5.80407155e-07 -9.74903068e-20)
(-8.79824446e-19 9.95639311e-07 -1.67223834e-19)
(-1.30061931e-18 1.47183664e-06 -2.47175152e-19)
(-1.80758455e-18 2.04555595e-06 -3.43466885e-19)
(-2.43724277e-18 2.75812557e-06 -4.63010882e-19)
(-3.2325349e-18 3.65813451e-06 -6.13917405e-19)
(-4.24509655e-18 4.80400838e-06 -8.05913365e-19)
(-5.5376487e-18 6.2667147e-06 -1.05077346e-18)
(-7.18649143e-18 8.13258439e-06 -1.36275708e-18)
(-9.28402177e-18 1.05061601e-05 -1.75902866e-18)
(-1.19411124e-17 1.35128861e-05 -2.26002013e-18)
(-1.52890498e-17 1.73012998e-05 -2.88966398e-18)
(-1.94806289e-17 2.20442668e-05 -3.67540283e-18)
(-2.4689278e-17 2.79379884e-05 -4.64774193e-18)
(-3.11042485e-17 3.5196558e-05 -5.83895688e-18)
(-3.89321689e-17 4.40537195e-05 -7.28287324e-18)
(-4.83547009e-17 5.47149621e-05 -9.00641089e-18)
(-5.95759532e-17 6.74111749e-05 -1.10375939e-17)
(-7.27199056e-17 8.2282597e-05 -1.33863784e-17)
(-8.78446035e-17 9.93948915e-05 -1.60468928e-17)
(-1.04870768e-16 0.000118658377 -1.89855413e-17)
(-1.2354034e-16 0.000139781121 -2.21360483e-17)
(-1.43377338e-16 0.000162224644 -2.53971913e-17)
(-1.63634622e-16 0.000185143677 -2.86309999e-17)
(-1.83289628e-16 0.00020738132 -3.16710869e-17)
(-2.0110081e-16 0.000227532894 -3.4339849e-17)
(-2.15755903e-16 0.000244113689 -3.64735333e-17)
(-1.88041082e-19 2.12787964e-07 -3.5742032e-20)
(-5.69045013e-19 6.4393546e-07 -1.08157533e-19)
(-9.77096649e-19 1.10569622e-06 -1.85700734e-19)
(-1.44680135e-18 1.63723355e-06 -2.74935527e-19)
(-2.01527565e-18 2.28055013e-06 -3.82893834e-19)
(-2.72480122e-18 3.08349112e-06 -5.1757259e-19)
(-3.62552339e-18 4.1027979e-06 -6.88434581e-19)
(-4.77830692e-18 5.40733938e-06 -9.06931353e-19)
(-6.2578191e-18 7.08160065e-06 -1.18705672e-18)
(-8.15585796e-18 9.22944829e-06 -1.54592662e-18)
(-1.05848684e-17 1.19781077e-05 -2.00436315e-18)
(-1.36814833e-17 1.54821679e-05 -2.58743491e-18)
(-1.76097686e-17 1.99272498e-05 -3.3248689e-18)
(-2.25636303e-17 2.55327269e-05 -4.25119904e-18)
(-2.87674737e-17 3.25524674e-05 -5.4054389e-18)
(-3.64739952e-17 4.12723349e-05 -6.83002328e-18)
(-4.59586819e-17 5.20039678e-05 -8.56890362e-18)
(-5.75028626e-17 6.50656102e-05 -1.06632748e-17)
(-7.13830013e-17 8.07700111e-05 -1.31482881e-17)
(-8.78482883e-17 9.93990844e-05 -1.60474292e-17)
(-1.07017377e-16 0.000121087083 -1.93537274e-17)
(-1.28889176e-16 0.000145832818 -2.30315209e-17)
(-1.53214146e-16 0.000173354025 -2.69975662e-17)
(-1.79479926e-16 0.000203071088 -3.11256901e-17)
(-2.06765464e-16 0.000233941979 -3.52357674e-17)
(-2.33708273e-16 0.000264425194 -3.91072542e-17)
(-2.58530572e-16 0.00029250933 -4.25033289e-17)
(-2.79217148e-16 0.000315914322 -4.5207444e-17)
(-2.06571948e-19 2.33754264e-07 -3.9262466e-20)
(-6.25342787e-19 7.07632436e-07 -1.1885187e-19)
(-1.07475776e-18 1.21619367e-06 -2.04249118e-19)
(-1.5938873e-18 1.80365387e-06 -3.02863028e-19)
(-2.22485668e-18 2.51768345e-06 -4.22671154e-19)
(-3.01599475e-18 3.4129705e-06 -5.72808544e-19)
(-4.02508573e-18 4.55490035e-06 -7.64169805e-19)
(-5.32288005e-18 6.0235281e-06 -1.01004978e-18)
(-6.99697862e-18 7.91797342e-06 -1.3268376e-18)
(-9.15615133e-18 1.03613061e-05 -1.73476462e-18)