/*--------------------------------*- C++ -*----------------------------------*\
| =========                 |                                                 |
| \\      /  F ield         | foam-extend: Open Source CFD                    |
|  \\    /   O peration     | Version:     4.1                                |
|   \\  /    A nd           | Web:         http://www.foam-extend.org         |
|    \\/     M anipulation  |                                                 |
\*---------------------------------------------------------------------------*/
FoamFile
{
    version     2.0;
    format      ascii;
    class       surfaceScalarField;
    location    "0.05";
    object      meshPhi;
}
// * * * * * * * * * * * * * * * * * * * * * * * * * * * * * * * * * * * * * //

dimensions      [0 3 -1 0 0 0 0];

internalField   nonuniform List<scalar> 
102656
(
-5.78241175e-21
2.86231588e-13
-3.31021767e-29
-2.31296475e-20
8.64579571e-13
-5.78241208e-21
-2.3129648e-20
1.46556303e-12
-5.78241243e-21
0
2.11325328e-12
-2.44394005e-28
-2.31296493e-20
2.83393858e-12
-5.78241322e-21
-2.31296511e-20
3.65382833e-12
5.78241327e-21
0
4.59929518e-12
0
-2.90836833e-27
5.69691757e-12
5.78241422e-21
0
6.97328924e-12
0
4.27882502e-27
8.4545664e-12
5.7824155e-21
4.62593184e-20
1.01657283e-11
-5.78241629e-21
-1.38777957e-19
1.21295373e-11
-1.40275954e-27
0
1.43652004e-11
0
0
1.68867586e-11
0
-1.85037367e-19
1.97012586e-11
5.78242071e-21
0
2.28068009e-11
5.78242215e-21
0
2.61905966e-11
5.78242371e-21
9.25187321e-20
2.98272035e-11
5.7824254e-21
6.5965032e-26
3.36771496e-11
5.78242718e-21
-9.25187325e-20
3.76861628e-11
-1.15648624e-20
9.25187883e-20
4.17852274e-11
0
-3.7007514e-19
4.5891651e-11
-5.30728829e-27
0
4.9911261e-11
0
0
5.374175e-11
0
0
5.72770683e-11
-5.78243809e-21
1.85037629e-19
6.04126347e-11
-5.78244652e-21
-1.85037646e-19
6.30510153e-11
5.78244076e-21
6.51076573e-11
-5.78244924e-21
1.85037659e-19
0
5.78435957e-13
5.78241172e-21
-1.36525601e-28
1.74704634e-12
0
-2.31296482e-20
2.96125496e-12
-5.78241262e-21
2.31296486e-20
4.27015775e-12
-5.78241283e-21
4.6259301e-20
5.72745214e-12
-1.15648262e-20
0
7.38669754e-12
-5.78241374e-21
-2.4163336e-27
9.30185352e-12
0
-4.62593076e-20
1.15274027e-11
-6.74285296e-28
9.25186181e-20
1.41179933e-11
-1.15648314e-20
4.39188258e-27
1.71275405e-11
1.15648332e-20
9.25186329e-20
2.06077352e-11
-1.20759963e-27
-4.62593115e-20
2.4605928e-11
5.78241881e-21
9.25186596e-20
2.91623897e-11
-1.71126877e-27
0
3.43069938e-11
5.78242167e-21
-2.02610464e-26
4.00554327e-11
0
-2.34046755e-26
4.64051524e-11
-2.72910762e-27
-9.25187195e-20
5.33312773e-11
0
2.77556183e-19
6.07828796e-11
5.78242592e-21
-9.25187227e-20
6.86800192e-11
0
3.82779391e-26
7.6912024e-11
-1.1564864e-20
-9.25187547e-20
8.53374732e-11
-5.78243678e-21
9.2518817e-20
9.37862831e-11
1.1564873e-20
-1.85037623e-19
1.02064161e-10
0
1.85037655e-19
1.09959481e-10
0
-1.85037742e-19
1.17252387e-10
-5.78244627e-21
1.85037651e-19
1.23725639e-10
5.78244088e-21
-1.85037919e-19
1.29176457e-10
-5.78244983e-21
1.33428463e-10
0
-1.85037812e-19
-5.78241173e-21
8.87486063e-13
5.78241173e-21
0
2.68040716e-12
-5.78241212e-21
-1.15648243e-20
4.5436815e-12
-5.7824125e-21
-6.13239526e-28
6.55393052e-12
-5.7824129e-21
-2.31296496e-20
8.79514212e-12
-3.54772924e-28
0
1.13512404e-11
-1.15648273e-20
-4.6259303e-20
1.43070284e-11
-5.78241448e-21
0
1.7748472e-11
-7.19455663e-28
0
2.17622214e-11
-1.15648311e-20
0
2.64342729e-11
-1.07630715e-27
-9.25186308e-20
3.18476804e-11
-1.15648362e-20
-9.25186533e-20
3.80792578e-11
0
-9.25186659e-20
4.51952576e-11
-5.78241901e-21
9.25186612e-20
5.32460869e-11
0
-9.25186961e-20
6.22602175e-11
-5.78242443e-21
0
7.2237575e-11
-5.78242354e-21
-9.25187329e-20
8.31428285e-11
5.78242538e-21
6.72531447e-26
9.48991491e-11
-5.78243132e-21
7.59771363e-26
1.0738313e-10
0
9.2518798e-20
1.20421643e-10
0
0
1.33791421e-10
5.78243401e-21
-2.77556429e-19
1.47222055e-10
-5.78244867e-21
-9.25187541e-20
1.60402886e-10
0
-1.85037654e-19
1.72993933e-10
1.15648888e-20
1.85037814e-19
1.84640584e-10
-7.79332572e-27
1.85037712e-19
1.94991241e-10
-1.15649056e-20
0
2.03716732e-10
-8.620451e-27
2.10529861e-10
-5.78245618e-21
-1.85037894e-19
-5.78241178e-21
1.22656342e-12
0
2.31296478e-20
3.70476893e-12
0
2.31296488e-20
6.281858e-12
-5.78241259e-21
-6.75177129e-28
9.06637181e-12
0
2.31296499e-20
1.21776008e-11
5.78241315e-21
6.9388955e-20
1.57351406e-11
-1.15648282e-20
-9.25186111e-20
1.98604199e-11
0
-3.54938893e-27
2.46772791e-11
-8.01304294e-28
9.2518629e-20
3.031145e-11
-1.15648321e-20
-9.25186279e-20
3.68887844e-11
-1.15648341e-20
0
4.45320898e-11
5.78241745e-21
1.85037317e-19
5.33564599e-11
5.78241865e-21
-9.25186773e-20
6.34630541e-11
0
-9.25186941e-20
7.49313762e-11
0
0
8.78102527e-11
-2.95481639e-27
9.25187341e-20
1.02107891e-10
-5.78242886e-21
0
1.1778162e-10
-5.78243162e-21
3.93434415e-26
1.34728138e-10
5.78243462e-21
9.25188087e-20
1.52775315e-10
-5.78243784e-21
5.01920217e-26
1.71676747e-10
5.7824353e-21
5.58692128e-26
1.91110301e-10
5.78243811e-21
-9.25188317e-20
2.1068179e-10
0
-1.85037708e-19
2.29934609e-10
0
1.8503775e-19
2.48365664e-10
0
1.85037788e-19
2.65447235e-10
5.78244898e-21
-1.85037822e-19
2.80653639e-10
0
1.85037849e-19
2.93490787e-10
-5.78246351e-21
3.03526145e-10
5.78245462e-21
1.85038044e-19
0
1.60873904e-12
-5.78241181e-21
-1.78782604e-28
4.85990316e-12
5.78241212e-21
0
8.24427433e-12
5.78241272e-21
2.31296494e-20
1.1908703e-11
0
4.62593028e-20
1.60150542e-11
-4.43794709e-28
4.62593031e-20
2.0726355e-11
-5.77225122e-28
-4.62593091e-20
2.62091786e-11
5.78241452e-21
0
3.26347268e-11
-5.78241527e-21
4.62593129e-20
4.01783962e-11
0
6.1776474e-27
4.90176034e-11
0
-4.62593227e-20
5.93276431e-11
1.15648386e-20
-9.2518676e-20
7.12753888e-11
-2.07229245e-27
-9.25186723e-20
8.50107138e-11
5.78242155e-21
-9.25187147e-20
1.00655647e-10
-2.97496645e-27
-9.2518738e-20
1.18291478e-10
5.78242921e-21
0
1.37944289e-10
-5.78243645e-21
9.25187516e-20
1.59569726e-10
0
-9.25187768e-20
1.83038167e-10
0
9.25188583e-20
2.08121796e-10
-5.78244359e-21
9.25189553e-20
2.34485391e-10
0
-9.25188612e-20
2.61682729e-10
0
2.77556824e-19
2.89160448e-10
-9.07591801e-27
-9.25189194e-20
3.16270787e-10
-5.78246152e-21
-9.25189468e-20
3.42293885e-10
0
0
3.66469294e-10
-1.16830225e-26
0
3.88035118e-10
0
-1.85038024e-19
4.06271932e-10
-1.304294e-26
4.20547646e-10
-1.35333296e-26
1.8503827e-19
5.78241179e-21
2.0471368e-12
5.78241179e-21
1.1564824e-20
6.18577134e-12
-5.78241235e-21
-2.31296495e-20
1.04998796e-11
5.78241263e-21
-2.31296516e-20
1.51831713e-11
-5.78241348e-21
2.31296534e-20
2.04498335e-11
-5.78241415e-21
2.31296524e-20
2.65168093e-11
5.78241427e-21
0
3.36074292e-11
-5.78241587e-21
4.62593119e-20
4.19533079e-11
5.78241697e-21
5.95215916e-27
5.17942095e-11
1.34334825e-27
9.25186513e-20
6.33755432e-11
5.78241822e-21
1.85037332e-19
7.69431521e-11
5.78242177e-21
-9.25186724e-20
9.27350704e-11
0
9.25186903e-20
1.10969996e-10
5.78242359e-21
-9.2518711e-20
1.31832395e-10
5.78242961e-21
-9.25187347e-20
1.55454434e-10
0
-9.25188053e-20
1.81895281e-10
-1.1564874e-20
-9.25188423e-20
2.11118847e-10
0
0
2.42971518e-10
1.15648856e-20
9.25189267e-20
2.77162047e-10
5.7824595e-21
9.25188954e-20
3.13246243e-10
0
0
3.50619387e-10
-5.78246302e-21
-9.25190694e-20
3.88519289e-10
-5.78246905e-21
9.25192236e-20
4.26042388e-10
0
9.25188165e-20
4.62174257e-10
0
0
4.95834327e-10
0
0
5.25932662e-10
5.7824754e-21
0
5.51434657e-10
5.78247876e-21
5.71427753e-10
-5.78249885e-21
0
1.15648236e-20
2.55500348e-12
-5.87338798e-29
-1.15648244e-20
7.72276625e-12
0
2.31296497e-20
1.31185779e-11
-5.78241341e-21
0
1.89939302e-11
0
2.31296532e-20
2.56278351e-11
5.78241399e-21
-1.77224443e-27
3.33047323e-11
5.78241473e-21
4.62593108e-20
4.2319899e-11
5.78241562e-21
9.25186366e-20
5.29826263e-11
-1.27552118e-27
7.10038589e-27
6.5616719e-11
0
-4.62593278e-20
8.05578225e-11
-1.98710022e-27
2.16423448e-26
9.81470954e-11
0
-1.32203582e-26
1.18720693e-10
0
0
1.42594585e-10
5.78242621e-21
0
1.70044428e-10
-1.15648673e-20
0
2.01280589e-10
0
9.2518859e-20
2.36418897e-10
-6.30555976e-27
-6.43101752e-26
2.75448434e-10
-7.43960292e-27
7.48875782e-26
3.18198432e-10
1.15649015e-20
9.25190172e-20
3.64307296e-10
0
9.85835866e-26
4.13197572e-10
5.78245783e-21
1.11326146e-25
4.64061314e-10
5.78245095e-21
1.24302312e-25
5.15860437e-10
1.15649557e-20
-1.85038543e-19
5.67346088e-10
-1.6341523e-26
-1.49507439e-25
6.17099613e-10
1.15649845e-20
-3.70077239e-19
6.63595413e-10
-1.94012729e-26
0
7.05282892e-10
5.78249457e-21
-3.70077568e-19
7.40681483e-10
-1.15650202e-20
7.68479796e-10
-5.78252555e-21
1.85039025e-19
-5.78241186e-21
3.14565781e-12
-5.78241193e-21
-1.15648246e-20
9.51160572e-12
0
-3.46944755e-20
1.61711568e-11
5.782413e-21
4.62593035e-20
2.34470847e-11
1.15648273e-20
-2.31296512e-20
3.16988113e-11
-5.7824144e-21
2.31296568e-20
4.129541e-11
-5.78241621e-21
0
5.2623462e-11
5.78241636e-21
-4.62593266e-20
6.60922133e-11
0
-4.62593267e-20
8.21352466e-11
0
9.25186913e-20
1.01207917e-10
0
-4.62593451e-20
1.23779975e-10
-1.15648498e-20
1.61213388e-26
1.50322492e-10
-5.78242985e-21
9.25187427e-20
1.81288242e-10
-4.47485306e-27
4.76873953e-26
2.17084905e-10
5.7824279e-21
-9.2518872e-20
2.58040957e-10
5.7824444e-21
1.85037718e-19
3.04364781e-10
-5.78245087e-21
0
3.5609848e-10
0
-9.25189642e-20
4.13069116e-10
-1.09716269e-26
1.85038269e-19
4.74841417e-10
0
0
5.4067748e-10
5.78247056e-21
9.25193009e-20
6.09510107e-10
-1.68208956e-26
9.25192276e-20
6.79936995e-10
0
9.2519475e-20
7.50242429e-10
-5.78251736e-21
2.77558287e-19
8.18451251e-10
0
0
8.82416489e-10
5.78251283e-21
0
9.39937275e-10
-1.15650946e-20
-1.85039524e-19
9.88898372e-10
-5.78255514e-21
1.02741773e-09
5.7825314e-21
0
5.78241191e-21
3.83227311e-12
0
-1.15648248e-20
1.15927893e-11
-1.15648253e-20
5.00256202e-28
1.97285607e-11
-5.78241324e-21
2.3129652e-20
2.86497867e-11
5.782414e-21
1.88582086e-27
3.88153093e-11
-8.230104e-28
4.62593149e-20
5.07001109e-11
5.78241594e-21
4.62593181e-20
6.48062423e-11
0
0
8.16711319e-11
5.78241879e-21
-4.62593232e-20
1.0187129e-10
-2.28243852e-27
0
1.26020222e-10
0
-4.62593562e-20
1.54760288e-10
0
1.96552476e-26
1.88746985e-10
0
-9.25188267e-20
2.28624085e-10
-5.78243895e-21
0
2.74988527e-10
0
9.25188702e-20
3.28344421e-10
-8.13047122e-27
9.25189273e-20
3.89046462e-10
5.78245076e-21
0
4.57234389e-10
0
1.85038369e-19
5.32761771e-10
0
-2.77557573e-19
6.15124541e-10
-5.78249271e-21
9.25195534e-20
7.03396997e-10
0
0
7.96185164e-10
-5.78254113e-21
1.85039039e-19
8.9160868e-10
0
-2.77558761e-19
9.87322154e-10
0
-9.25198552e-20
1.08058455e-09
5.78253287e-21
0
1.16838029e-09
5.7825439e-21
0
1.24758844e-09
0
1.85039649e-19
1.3151877e-09
0
1.36847653e-09
-5.78260884e-21
3.70080771e-19
-5.78241205e-21
4.62737173e-12
-5.78241205e-21
-1.1564825e-20
1.40054471e-11
5.78241271e-21
-1.15648255e-20
2.38604743e-11
0
-1.63950792e-27
3.47083109e-11
5.7824144e-21
2.31296596e-20
4.71300518e-11
5.78241544e-21
0
6.17329206e-11
-1.15648359e-20
7.48977175e-27
7.91639034e-11
-5.78241989e-21
0
1.00123762e-10
2.13401405e-27
4.62593535e-20
1.25374199e-10
5.78242517e-21
9.25187387e-20
1.55736292e-10
5.78242189e-21
-4.62593887e-20
1.9208243e-10
-4.3162398e-27
0
2.35318277e-10
-5.78243313e-21
9.25188806e-20
2.8635199e-10
-5.78244496e-21
9.25189476e-20
3.46049033e-10
-5.78244446e-21
-9.25190265e-20
4.15170981e-10
-1.00413382e-26
-9.25191181e-20
4.94298148e-10
5.78246028e-21
9.25190956e-20
5.83737538e-10
5.78247011e-21
1.51235102e-25
6.83419959e-10
-1.156498e-20
9.25194731e-20
7.92793098e-10
0
-9.2519616e-20
9.10721244e-10
5.78250751e-21
-9.25195317e-20
1.0354061e-09
-5.78254993e-21
-9.25199262e-20
1.1643459e-09
5.78256932e-21
9.25197856e-20
1.29435045e-09
-3.55072796e-26
2.7755973e-19
1.4216274e-09
5.78252994e-21
0
1.54194763e-09
-4.3202402e-26
0
1.65088728e-09
5.78264483e-21
0
1.74412902e-09
-4.96063052e-26
1.81779155e-09
5.78261948e-21
1.85041409e-19
5.78241201e-21
5.54102181e-12
5.78241201e-21
-4.31462603e-28
1.67845066e-11
0
6.72487311e-28
2.86333528e-11
5.7824138e-21
0
4.17251714e-11
1.15648305e-20
2.56831701e-27
5.67914457e-11
-1.11732311e-27
-2.31296667e-20
7.46052661e-11
0
4.62593367e-20
9.59928075e-11
-1.94623298e-27
9.25186872e-20
1.21861054e-10
-5.78242416e-21
0
1.53210801e-10
-1.15648554e-20
1.83085413e-26
1.91133205e-10
0
2.3067596e-26
2.36804404e-10
0
0
2.91466443e-10
-5.78244405e-21
0
3.56389972e-10
-5.78245209e-21
-9.25189403e-20
4.32817405e-10
5.78245173e-21
0
5.21882697e-10
5.78246095e-21
-9.25193786e-20
6.24506918e-10
0
1.85038605e-19
7.41270543e-10
0
-1.85038692e-19
8.7226661e-10
-5.7825208e-21
-9.25192594e-20
1.01694254e-09
-5.78256714e-21
9.25201602e-20
1.17394498e-09
-5.78253337e-21
6.06003709e-25
1.34098861e-09
0
0
1.51477482e-09
-5.78261425e-21
1.85040668e-19
1.69098885e-09
0
-9.25203089e-20
1.86440122e-09
-5.78266766e-21
-1.85041878e-19
2.02909046e-09
-1.15653866e-20
-1.01241141e-24
2.17878737e-09
-6.10507125e-26
-1.85042531e-19
2.30731829e-09
-5.7827373e-21
2.40909977e-09
0
1.85042754e-19
0
6.5900551e-12
-5.78241207e-21
-1.15648252e-20
1.99704783e-11
0
-1.1564827e-20
3.41015101e-11
-5.78241475e-21
0
4.97809292e-11
0
2.31296612e-20
6.79308269e-11
0
4.6259336e-20
8.95181086e-11
5.78242021e-21
0
1.155801e-10
5.78241839e-21
9.25187048e-20
1.47286342e-10
-2.94038969e-27
-9.25187216e-20
1.85947829e-10
-5.78243052e-21
2.17124574e-26
2.33002448e-10
0
-9.25188331e-20
2.90022898e-10
0
4.62594314e-20
3.58699386e-10
1.15648932e-20
9.25189327e-20
4.40794302e-10
0
-9.25189093e-20
5.38073453e-10
0
9.25192515e-20
6.52202338e-10
5.78247188e-21
-1.63045716e-25
7.84607295e-10
-5.78250417e-21
0
9.36300656e-10
0
0
1.10767444e-09
5.7825205e-21
2.82799318e-25
1.29826916e-09
0
3.32619208e-25
1.50653682e-09
-5.78260393e-21
9.25205182e-20
1.72962783e-09
0
-9.25212457e-20
1.9632406e-09
5.78261909e-21
-9.25200902e-20
2.20157884e-09
0
-9.25208215e-20
2.43746027e-09
-5.78274301e-21
0
2.66260985e-09
-5.78270472e-21
0
2.8681463e-09
-1.15656206e-20
1.85042798e-19
3.04523378e-09
-8.53386222e-26
3.18582779e-09
-5.78286081e-21
0
-1.37814559e-28
7.78172522e-12
-5.78241228e-21
-1.15648254e-20
2.35861064e-11
-5.7824141e-21
1.15648267e-20
4.03120977e-11
-7.18243478e-28
-2.31296563e-20
5.89577923e-11
1.15648338e-20
-2.31296599e-20
8.06631358e-11
1.1564835e-20
-6.93889933e-20
1.06621785e-10
0
9.25186921e-20
1.38150367e-10
0
0
1.76759045e-10
1.73472791e-20
4.62594121e-20
2.24126014e-10
-5.78242925e-21
0
2.82118034e-10
5.78243431e-21
4.62594556e-20
3.52833189e-10
-5.78244791e-21
4.13059014e-26
4.385543e-10
-5.78244853e-21
9.2519106e-20
5.41702306e-10
-1.15649399e-20
0
6.64761805e-10
1.15649404e-20
1.85038628e-19
8.10147064e-10
1.73474723e-20
-9.25193841e-20
9.80020958e-10
5.782502e-21
9.25195616e-20
1.17605843e-09
0
1.85040125e-19
1.39916337e-09
-5.78258016e-21
3.53863753e-25
1.64913494e-09
0
9.25206816e-20
1.92431e-09
0
0
2.22122345e-09
-5.7826959e-21
-9.25208511e-20
2.5343428e-09
-5.78274188e-21
6.44535413e-25
2.85594685e-09
5.78271437e-21
-2.7756515e-19
3.17622084e-09
-8.54363533e-26
-1.8504514e-19
3.48362978e-09
0
-1.85045811e-19
3.76559877e-09
0
0
4.00946997e-09
0
4.20363177e-09
0
0
0
9.11544488e-12
0
-1.15648263e-20
2.76412708e-11
0
1.15648271e-20
4.72989034e-11
-1.15648305e-20
2.31296576e-20
6.93087276e-11
-1.19706735e-27
2.31296656e-20
9.50601767e-11
-1.66499229e-27
-4.62593338e-20
1.26038273e-10
-5.78242506e-21
-1.3560583e-26
1.63912534e-10
0
0
2.10580708e-10
-5.78242724e-21
2.30283035e-26
2.68180995e-10
-5.09488057e-27
9.2518883e-20
3.39164088e-10
5.78243798e-21
1.8503782e-19
4.26271214e-10
0
-9.25190242e-20
5.32525313e-10
-5.78246594e-21
0
6.6124144e-10
5.7824669e-21
-9.25192092e-20
8.15882182e-10
-5.78249899e-21
-9.25195615e-20
9.99901963e-10
-5.78252133e-21
9.25197977e-20
1.21652053e-09
-5.78254836e-21
-9.25200782e-20
1.46840225e-09
-3.38090465e-26
3.64139379e-25
1.75728526e-09
-4.1416163e-26
-9.25207838e-20
2.08350403e-09
-1.15652754e-20
5.24710291e-25
2.44545674e-09
0
-9.25210602e-20
2.83907362e-09
5.78269747e-21
-9.25207441e-20
3.25736473e-09
0
0
3.69015408e-09
-5.78279758e-21
-9.25223051e-20
4.12411584e-09
-5.78295981e-21
0
4.54322491e-09
5.78290188e-21
-1.85046158e-19
4.92969248e-09
5.78295023e-21
0
5.26536714e-09
0
5.53345171e-09
0
1.85049772e-19
5.78241227e-21
1.05959935e-11
5.78241227e-21
-6.99719687e-28
3.21470268e-11
0
3.46944849e-20
5.50724681e-11
0
4.62593178e-20
8.08486341e-11
-1.33456979e-27
2.31296722e-20
1.11166993e-10
-5.7824209e-21
-2.31296753e-20
1.47864854e-10
0
-1.53483801e-26
1.93013357e-10
-3.36545879e-27
0
2.48973872e-10
5.78242935e-21
0
3.18480037e-10
5.78243486e-21
4.6259464e-20
4.04682904e-10
-1.15648914e-20
4.62595141e-20
5.11144185e-10
-5.78246068e-21
-5.69302733e-26
6.41908733e-10
0
0
8.01398472e-10
-1.62089129e-26
-9.25193244e-20
9.94323761e-10
-5.78253543e-21
0
1.22561618e-09
1.15650582e-20
-9.25200436e-20
1.49999417e-09
-3.2783226e-26
-3.61884194e-25
1.82155389e-09
0
9.25212558e-20
2.19334551e-09
-5.78261336e-21
0
2.61668216e-09
0
0
3.09035734e-09
5.78270999e-21
-2.77565827e-19
3.60982968e-09
0
-9.25222173e-20
4.16647378e-09
5.78283225e-21
-1.85047653e-19
4.74706245e-09
-1.22229584e-25
-9.25221572e-20
5.33365523e-09
0
1.85047797e-19
5.90409078e-09
0
0
6.43324049e-09
-5.7832812e-21
0
6.89504674e-09
-1.88469564e-25
7.26514462e-09
0
0
0
1.22202125e-11
5.78241253e-21
-1.1564827e-20
3.709379e-11
-5.78241387e-21
2.3129656e-20
6.3620635e-11
-5.78241653e-21
-2.31296637e-20
9.35726552e-11
-1.47151052e-27
0
1.28990844e-10
0
0
1.72113217e-10
0
4.62593614e-20
2.25481698e-10
-3.75490622e-27
-4.62594062e-20
2.92038923e-10
-5.78243152e-21
4.62594418e-20
3.75225358e-10
-5.78244441e-21
-4.62594486e-20
4.79028907e-10
-8.59798378e-27
-9.2519042e-20
6.08082264e-10
5.78245644e-21
4.62595553e-20
7.67677559e-10
-5.78248433e-21
0
9.63669423e-10
0
9.2519667e-20
1.20252709e-09
-5.782532e-21
-1.85039646e-19
1.49110083e-09
-5.78253443e-21
9.25199735e-20
1.8360906e-09
-5.78260597e-21
9.25203224e-20
2.24366764e-09
-5.78265572e-21
0
2.71890249e-09
0
6.60865222e-25
3.26477329e-09
0
0
3.88104673e-09
5.78277745e-21
0
4.56306158e-09
1.15658156e-20
9.25231337e-20
5.30051256e-09
0
9.25265263e-20
6.07651787e-09
5.78302676e-21
-9.25276736e-20
6.86719637e-09
0
0
7.64209522e-09
-5.78321581e-21
0
8.36579711e-09
5.78330584e-21
4.04425515e-24
9.00085059e-09
-5.78362954e-21
9.51178736e-09
5.78345119e-21
0
0
1.3978862e-11
-1.1564825e-20
0
4.24539526e-11
6.19893309e-28
-1.1564831e-20
7.28982136e-11
-5.78241695e-21
-4.62593267e-20
1.0741818e-10
0
0
1.48452293e-10
5.78242059e-21
0
1.9869733e-10
5.78242081e-21
1.89401712e-26
2.61245571e-10
-4.13602861e-27
9.2518812e-20
3.39716668e-10
0
-4.62594258e-20
4.38384902e-10
-7.30428953e-27
4.62595116e-20
5.62292208e-10
0
-9.25190442e-20
7.17357919e-10
5.78246215e-21
-4.62596663e-20
9.10384984e-10
5.78247762e-21
0
1.14912171e-09
-5.78251885e-21
0
1.44235321e-09
-5.78255029e-21
0
1.79946653e-09
5.78255427e-21
-9.2520625e-20
2.22974334e-09
-4.55252434e-26
9.25206445e-20
2.7421985e-09
-5.76542126e-26
-1.85042323e-19
3.34498148e-09
0
7.97568039e-25
4.04375507e-09
-9.0087866e-26
-9.25224953e-20
4.84019303e-09
-5.78296633e-21
0
5.73023869e-09
1.34981968e-25
-2.77575515e-19
6.70213392e-09
-1.15662824e-20
9.25252175e-20
7.73486303e-09
5.78317896e-21
9.25262419e-20
8.79712865e-09
5.78330463e-21
0
9.8474614e-09
5.78368713e-21
1.85061215e-19
1.08361193e-08
0
-1.85063254e-19
1.1709209e-08
1.15676429e-20
1.24148479e-08
5.78375494e-21
0
0
1.58559023e-11
-5.78241267e-21
0
4.81791307e-11
-5.7824149e-21
-1.15648288e-20
8.28234033e-11
-5.78241732e-21
0
1.22267537e-10
-1.15648386e-20
2.31296801e-20
1.69394702e-10
0
4.62593769e-20
2.27420119e-10
0
4.62593751e-20
3.00066168e-10
0
0
3.91736167e-10
5.78243566e-21
3.65920143e-26
5.07687475e-10
5.78244366e-21
4.84390093e-26
6.54199173e-10
-5.78246475e-21
-9.25190325e-20
8.38726373e-10
-5.78248179e-21
0
1.0700127e-09
0
9.25194622e-20
1.35816847e-09
-5.78253249e-21
0
1.71475446e-09
1.15651068e-20
-3.68008549e-25
2.15231984e-09
-5.78257486e-21
-4.72288233e-25
2.68386658e-09
-1.1565296e-20
-9.25215953e-20
3.322694e-09
0
7.59959762e-25
4.08094387e-09
-8.51127489e-26
-9.2522388e-20
4.96807633e-09
5.78283929e-21
9.25244674e-20
5.98942104e-09
1.15660196e-20
-9.2527214e-20
7.14289274e-09
-1.15664573e-20
0
8.41596529e-09
-1.15666075e-20
0
9.78339096e-09
0
0
1.12050571e-08
-5.78352582e-21
0
1.26252374e-08
5.78369697e-21
3.70129538e-19
1.39744685e-08
-5.78422676e-21
6.69515528e-24
1.51751112e-08
0
1.61507546e-08
0
-1.85072832e-19
5.78241273e-21
1.78279621e-11
2.28065238e-28
0
5.41984343e-11
-5.78241437e-21
1.48125208e-27
9.32747749e-11
-1.20868261e-27
0
1.3794252e-10
-1.8127841e-27
4.62593524e-20
1.91573703e-10
0
6.93890451e-20
2.57959158e-10
0
4.62593809e-20
3.41528961e-10
0
0
4.47577002e-10
5.78243743e-21
-4.62594115e-20
5.82492329e-10
-5.78245485e-21
5.27350151e-26
7.53994466e-10
-1.15411492e-26
-4.62596427e-20
9.71363385e-10
0
-4.62596629e-20
1.24564485e-09
5.78251317e-21
-9.25198036e-20
1.58980904e-09
5.78251877e-21
0
2.01882029e-09
1.7347692e-20
0
2.5492869e-09
-5.78264118e-21
0
3.19928587e-09
0
0
3.98760359e-09
-5.78279615e-21
9.2523e-20
4.93202478e-09
0
1.11582836e-24
6.04814897e-09
5.78291137e-21
9.25255662e-20
7.3467973e-09
5.78319667e-21
0
8.82972187e-09
-5.78338722e-21
-1.85054007e-19
1.04854416e-08
5.78336921e-21
9.25286906e-20
1.22852542e-08
-2.89336061e-25
2.77594484e-19
1.41794457e-08
5.78378795e-21
0
1.60946309e-08
5.78401701e-21
-1.85076045e-19
1.79347133e-08
1.15689463e-20
0
1.95877995e-08
5.7844535e-21
2.09402696e-08
5.78462787e-21
1.85073852e-19
5.78241253e-21
1.98641546e-11
1.15648251e-20
-9.67559005e-28
6.04178251e-11
0
-2.31296617e-20
1.04089902e-10
0
-4.45342337e-27
1.54201538e-10
-5.78241911e-21
-6.93890137e-20
2.1465155e-10
-5.78242226e-21
-4.62593695e-20
2.89857074e-10
0
0
3.85026527e-10
5.78243172e-21
-4.62594805e-20
5.06444325e-10
5.78243883e-21
-9.2518922e-20
6.61773031e-10
5.78244827e-21
-9.25190364e-20
8.60372649e-10
5.78246081e-21
1.38778932e-19
1.11362882e-09
5.78247742e-21
-2.00347982e-25
1.43527034e-09
-5.78252126e-21
0
1.84164106e-09
-2.91239283e-26
-9.25203389e-20
2.35186303e-09
1.73477356e-20
9.25204289e-20
2.98777859e-09
-5.7826652e-21
-6.02112547e-25
3.77369326e-09
-5.78274381e-21
0
4.73534181e-09
-5.78275759e-21
1.00720339e-24
5.89868704e-09
5.78285889e-21
1.28765318e-24
7.28836279e-09
0
0
8.92346329e-09
-1.15664647e-20
1.85055527e-19
1.08124726e-08
0
-9.25261411e-20
1.29479604e-08
-2.84785943e-25
9.25338963e-20
1.53002829e-08
-5.78380675e-21
-2.7760333e-19
1.78110757e-08
5.78409208e-21
0
2.03867727e-08
0
1.85076364e-19
2.28965451e-08
5.7847076e-21
1.85080776e-19
2.51794186e-08
-6.46660859e-25
2.70641971e-08
-7.08221389e-25
0
-5.78241254e-21
2.19263468e-11
5.78241254e-21
0
6.67208777e-11
0
-1.55793763e-27
1.15066437e-10
1.26941683e-27
-4.53497405e-27
1.70740592e-10
5.78242115e-21
6.35713941e-27
2.38197335e-10
0
2.31296901e-20
3.22519952e-10
5.7824267e-21
4.62594121e-20
4.29753134e-10
0
-3.23874354e-26
5.6725687e-10
-5.78244676e-21
4.62594678e-20
7.44091962e-10
0
5.89858124e-26
9.71440805e-10
5.78246298e-21
1.38778909e-19
1.26305834e-09
0
-9.25195415e-20
1.63573527e-09
-5.78252753e-21
0
2.1097367e-09
-5.78256665e-21
0
2.70915177e-09
0
9.25205865e-20
3.46205416e-09
0
0
4.40034917e-09
0
-8.64764204e-25
5.55905249e-09
-1.1565776e-20
1.12661874e-24
6.97489402e-09
1.15660681e-20
-9.25244119e-20
8.68418233e-09
1.1566115e-20
0
1.07189563e-08
0
0
1.31000692e-08
0
-9.25304397e-20
1.58281353e-08
5.78407744e-21
-1.85070083e-19
1.88771829e-08
-4.13662164e-25
9.25363451e-20
2.2185609e-08
0
0
2.56405597e-08
1.15696854e-20
-1.85086291e-19
2.90688725e-08
-8.65735057e-21
-1.8509261e-19
3.22407385e-08
-1.15267387e-20
3.48937976e-08
-1.15239296e-20
1.85097667e-19
-5.78241277e-21
2.39699698e-11
0
-1.1564828e-20
7.29712075e-11
0
1.15648309e-20
1.25966159e-10
0
-2.31296689e-20
1.8719895e-10
-1.90338007e-27
6.35211652e-27
2.61694225e-10
0
-2.3129699e-20
3.55225903e-10
-5.7824305e-21
0
4.74713879e-10
0
0
6.28654917e-10
-5.7824471e-21
-4.62594263e-20
8.27603037e-10
5.78245023e-21
6.02929588e-26
1.08470866e-09
0
9.25193191e-20
1.41631707e-09
-5.78250023e-21
1.09900973e-25
1.84261351e-09
0
-9.25197682e-20
2.38828191e-09
-1.15651132e-20
-9.25201713e-20
3.08311459e-09
0
1.85041938e-19
3.96246892e-09
5.78264314e-21
0
5.06741348e-09
-1.15655177e-20
9.252232e-20
6.44432671e-09
-5.78292361e-21
-1.85047008e-19
8.14366612e-09
-5.78308759e-21
-9.25250191e-20
1.02175082e-08
-5.78329844e-21
0
1.2715896e-08
-1.15669022e-20
-1.8506133e-19
1.56783541e-08
5.78330648e-21
6.82764239e-24
1.91233913e-08
5.78393642e-21
-9.2531458e-20
2.30400943e-08
-5.78481935e-21
0
2.73724856e-08
-5.78481173e-21
0
3.19963643e-08
-2.86976378e-21
1.85098486e-19
3.66966477e-08
-8.65500675e-21
0
4.11526096e-08
-1.73621828e-20
4.49546644e-08
-2.31523405e-20
3.70250576e-19
5.7824125e-21
2.59454108e-11
-5.7824125e-21
-1.15648279e-20
7.90167046e-11
0
-3.46944905e-20
1.36522281e-10
0
2.31296639e-20
2.03169997e-10
5.78241898e-21
0
2.84554575e-10
-5.78242481e-21
4.62593613e-20
3.87145363e-10
0
-4.62594107e-20
5.18751115e-10
-1.1564869e-20
0
6.89033536e-10
-6.98268052e-27
-4.62594689e-20
9.10091455e-10
0
5.99712239e-26
1.19713234e-09
5.78246361e-21
1.63021688e-25
1.56923993e-09
5.78248235e-21
0
2.05023437e-09
-2.40109854e-26
9.25197833e-20
2.66960096e-09
-5.78257429e-21
0
3.46343304e-09
5.78258757e-21
9.25213089e-20
4.47528863e-09
0
-9.25229726e-20
5.75679651e-09
-5.78281031e-21
9.25224972e-20
7.36776055e-09
0
1.30153971e-24
9.37541216e-09
-5.78312401e-21
9.25289286e-20
1.18523402e-08
1.15665252e-20
-9.25253895e-20
1.48725513e-08
-1.15670685e-20
9.25333902e-20
1.85033712e-08
0
-9.253777e-20
2.27962857e-08
0
-9.25382903e-20
2.77746721e-08
-1.4441698e-20
9.25373283e-20
3.34090385e-08
-5.73862993e-21
1.85099597e-19
3.95873284e-08
-8.6520365e-21
0
4.60743016e-08
-1.15740441e-20
-1.85128005e-19
5.24487848e-08
-2.31538206e-20
5.80632924e-08
-1.7367706e-20
-1.8516625e-19
-5.78241266e-21
2.77999689e-11
-5.78241266e-21
-1.15648267e-20
8.46955258e-11
-5.78241487e-21
0
1.46449954e-10
-1.14811779e-27
2.31296629e-20
2.1821723e-10
1.15648388e-20
0
3.06143026e-10
1.15648432e-20
4.62593741e-20
4.17373573e-10
5.78242557e-21
-4.62593825e-20
5.60589429e-10
-5.78243579e-21
-4.62594468e-20
7.46604011e-10
5.78243823e-21
4.22339584e-26
9.89056362e-10
-1.15649054e-20
4.62595816e-20
1.30522369e-09
0
4.62596873e-20
1.71697312e-09
-1.70850828e-26
1.07632765e-25
2.25186174e-09
5.78250489e-21
0
2.94437586e-09
-5.78257051e-21
9.25201801e-20
3.83727171e-09
-4.32337811e-26
0
4.98293464e-09
0
-7.31944834e-25
6.44460875e-09
1.15654597e-20
-9.8797378e-25
8.29725953e-09
5.7828417e-21
0
1.06277199e-08
-5.78328073e-21
0
1.35336377e-08
5.78338403e-21
2.37795793e-24
1.7120598e-08
-5.78371182e-21
0
2.14965917e-08
-5.78414282e-21
0
2.67639151e-08
-4.58849323e-25
0
3.30074587e-08
-1.73553173e-20
0
4.02725935e-08
-2.31435409e-20
0
4.85218041e-08
-1.15736083e-20
-1.85132652e-19
5.75667358e-08
-1.73665111e-20
-1.85185865e-19
6.69310319e-08
-2.31589641e-20
7.56075822e-08
-1.7374633e-20
0
-1.15648249e-20
2.94802916e-11
0
-1.15648272e-20
8.98435971e-11
5.78241397e-21
-2.31296579e-20
1.55459537e-10
0
3.76353087e-27
2.31894794e-10
-1.58178608e-27
2.31296783e-20
3.25806753e-10
0
4.62593671e-20
4.44974278e-10
-5.78242436e-21
0
5.98898118e-10
0
0
7.9948265e-10
0
3.898493e-26
1.06183642e-09
-5.78245368e-21
4.62595604e-20
1.40522684e-09
-5.78246943e-21
0
1.85422071e-09
-1.58724405e-26
-4.62598967e-20
2.44003528e-09
0
0
3.20211062e-09
-2.98065693e-26
0
4.18989085e-09
5.78257475e-21
-5.14687074e-25
5.46476406e-09
-5.78269027e-21
9.25213936e-20
7.10205721e-09
0
1.85045772e-19
9.19291286e-09
5.78282604e-21
-9.25237808e-20
1.18458006e-08
0
0
1.51873646e-08
-5.78336808e-21
2.38647713e-24
1.9362331e-08
0
-1.85063025e-19
2.45323644e-08
-5.78451851e-21
-9.25317146e-20
3.0874157e-08
-8.65370813e-21
1.18612668e-23
3.85767602e-08
-8.65080838e-21
1.85109782e-19
4.78366956e-08
-1.73590473e-20
1.85125302e-19
5.88326383e-08
-1.15761541e-20
0
7.16145957e-08
-5.78972425e-21
1.85237285e-19
8.58392883e-08
-2.31701108e-20
1.00046235e-07
-1.73853997e-20
-1.85238942e-19
-5.78241226e-21
3.09351478e-11
-1.15648249e-20
0
9.43031633e-11
5.78241365e-21
-1.15648276e-20
1.63271825e-10
5.7824152e-21
-3.27001617e-27
2.43771256e-10
1.73472526e-20
4.64228458e-27
3.42910993e-10
-1.97807519e-27
-2.31296788e-20
4.69031912e-10
0
1.79920876e-26
6.32367395e-10
-3.87066273e-27
-9.25188092e-20
8.45801766e-10
1.15648714e-20
3.42899366e-26
1.1257713e-09
-1.15648897e-20
4.6259529e-20
1.49335294e-09
5.78245237e-21
4.6259618e-20
1.97558536e-09
-1.15649636e-20
0
2.6070636e-09
0
-9.25198162e-20
3.43184125e-09
-5.78257102e-21
-1.85040215e-19
4.5056584e-09
-3.65179585e-26
0
5.89849044e-09
0
-9.2521135e-20
7.69738226e-09
1.15653741e-20
9.25220817e-20
1.0009509e-08
0
1.85047955e-19
1.2965425e-08
1.15658594e-20
9.25251589e-20
1.67226082e-08
0
-9.25276154e-20
2.14698426e-08
-2.43729992e-25
9.253415e-20
2.74339415e-08
-2.87085297e-21
0
3.48920213e-08
-8.6519318e-21
-2.77634722e-19
4.41945564e-08
-2.3141019e-20
9.25619494e-20
5.58045001e-08
-1.73596778e-20
-2.77745376e-19
7.034874e-08
-5.78840634e-21
1.85225098e-19
8.85985494e-08
-1.73737579e-20
-1.85313684e-19
1.10933206e-07
-1.15923997e-20
1.3540013e-07
-1.74024456e-20
0
5.78241227e-21
3.21183333e-11
5.78241227e-21
1.15648254e-20
9.79317642e-11
5.78241326e-21
3.46944822e-20
1.69634063e-10
-5.78241527e-21
-2.31296597e-20
2.5345478e-10
-5.78241719e-21
2.31296653e-20
3.56876995e-10
5.78241966e-21
-2.31296729e-20
4.88708012e-10
-2.27550611e-27
1.47545758e-26
6.59791881e-10
5.78242428e-21
0
8.8383325e-10
5.78242919e-21
2.82456227e-26
1.17838477e-09
5.78243593e-21
3.90146182e-26
1.56605211e-09
5.78245363e-21
4.62595621e-20
2.075973e-09
1.1609653e-26
0
2.7456276e-09
-1.6024681e-26
-9.25196112e-20
3.62303626e-09
-5.78250006e-21
-9.25197173e-20
4.76939491e-09
0
9.25201462e-20
6.26219121e-09
-4.20613509e-26
9.25207373e-20
8.19884459e-09
-5.78270162e-21
-9.25222944e-20
1.07009517e-08
-5.78281151e-21
1.0235416e-24
1.39193733e-08
1.15658164e-20
1.41569349e-24
1.80408488e-08
-5.78317404e-21
9.25284227e-20
2.32979511e-08
5.78325752e-21
9.25323719e-20
2.99867426e-08
-1.73511846e-20
-9.25382033e-20
3.85017246e-08
-1.73528719e-20
1.85088686e-19