/*--------------------------------*- C++ -*----------------------------------*\
| =========                 |                                                 |
| \\      /  F ield         | foam-extend: Open Source CFD                    |
|  \\    /   O peration     | Version:     4.1                                |
|   \\  /    A nd           | Web:         http://www.foam-extend.org         |
|    \\/     M anipulation  |                                                 |
\*---------------------------------------------------------------------------*/
FoamFile
{
    version     2.0;
    format      ascii;
    class       volScalarField;
    location    "0.05";
    object      p;
}
// * * * * * * * * * * * * * * * * * * * * * * * * * * * * * * * * * * * * * //

dimensions      [0 2 -2 0 0 0 0];

internalField   nonuniform List<scalar> 
35840
(
80.2090324
65.5653536
56.498984
52.1749135
49.2107132
46.8427619
44.9620965
43.4042626
42.0445753
40.8219307
39.7039383
38.6683875
37.6979853
36.7783761
35.8971898
35.0437986
34.20932
33.3865875
32.5700641
31.7556662
30.9405405
30.12284
29.301519
28.4761511
27.6467757
26.8137727
25.97777
25.1395729
73.3314869
62.9259942
55.7387249
51.9566832
49.1771494
46.8670488
45.0044377
43.4527615
42.0906096
40.8611546
39.7358466
38.6938183
37.7179753
36.7939222
35.9091804
35.0529565
34.216198
33.3916219
32.5736018
31.7579823
30.9418583
30.1233436
29.3013626
28.4754676
27.6456828
26.8123785
25.9761759
25.137871
70.1413636
61.3774662
55.0206834
51.5146093
48.917721
46.732036
44.9405709
43.4313385
42.0951472
40.8810486
39.7647377
38.7278126
37.7544342
36.8309371
35.9453289
35.0871836
34.2477354
33.4199566
32.5984553
31.7792631
30.9596036
30.1376758
29.3124562
28.4835243
27.6509156
26.8150043
25.9764147
25.13595
68.5231001
60.1878052
54.2855795
51.0529375
48.6460116
46.5981244
44.8952352
43.441161
42.1398732
40.9472785
39.843223
38.8120888
37.8398971
36.9143092
36.0243285
35.1602843
34.3140006
33.4788991
32.6499287
31.8233732
30.9966197
30.1679563
29.3364005
28.5015424
27.6634099
26.8223647
25.979025
25.1342007
67.4211484
59.2186189
53.6093319
50.6176394
48.3807297
46.4615789
44.8522603
43.4622929
42.2040836
41.0396339
39.9525814
38.929969
37.9598828
37.0316758
36.1357505
35.263564
34.4078328
33.5626447
32.7234201
31.8867587
31.0502488
30.2122855
29.3719281
28.5287692
27.6828215
26.8344324
25.9842192
25.1330113
66.6226993
58.4911916
53.0522458
50.2240682
48.1172869
46.3066227
44.7850773
43.4615913
42.2519589
41.1219576
40.057952
39.0490918
38.0852986
37.1575918
36.2578613
35.3788442
34.5143037
33.6591382
32.8093556
31.9619512
31.1147708
30.2663717
29.4158972
28.5629748
27.7076316
26.8502324
25.9914309
25.1321158
66.0233501
57.9328298
52.5925676
49.8731522
47.8648397
46.142171
44.6963362
43.4344192
42.2730153
41.1796254
40.1421607
39.1511635
38.1979141
37.2747723
36.3749104
35.4922229
34.6214658
33.758343
32.8994668
32.0422646
31.184881
30.3260792
29.4651368
28.6017647
27.7360553
26.8684478
25.9996921
25.1307997
65.5573804
57.4912486
52.2122065
49.5671484
47.6326965
45.9795406
44.5961256
43.3876439
42.2704185
41.212446
40.2023138
39.2313343
38.2916468
37.3765361
36.480124
35.5972131
34.7233701
33.8549844
32.9892091
32.1238787
31.257441
30.3888828
29.5176431
28.6435559
27.7668322
26.8880493
26.0081258
25.1282724
65.186538
57.1363047
51.8976189
49.3042726
47.4247818
45.8259319
44.4931901
43.3298796
42.2516136
41.226267
40.242584
39.2922174
38.3677752
37.4631062
36.5729575
35.6927674
34.8186963
33.9476504
33.0772077
32.2055407
31.3313651
30.4538728
29.5726606
28.6877064
27.7993832
26.9084671
26.0161193
25.1238345
64.8869327
56.8476891
51.6367671
49.0802062
47.2419241
45.685589
44.3939018
43.2684447
42.2239853
41.2279938
40.2690816
39.3389704
38.4304672
37.537714
36.6558195
35.7806155
34.9086472
34.0371622
33.1640292
32.2876637
31.4069786
30.5213153
29.6303973
28.7343475
27.8337291
26.9295682
26.0233408
25.1169174
64.6425575
56.6112152
51.4201354
48.8904748
47.0835492
45.5607371
44.3024157
43.2086546
42.1933835
41.2235542
40.2874909
39.3768155
38.4843543
37.6043492
36.7320699
35.8635446
34.9955206
34.125426
33.2512831
32.3716403
31.485506
30.5922857
29.6917772
28.7842289
27.8704032
26.9516146
26.0297243
25.1070806
64.4422131
56.4167563
51.2403538
48.7309058
46.9482588
45.4521685
44.2211682
43.1540736
42.1640526
41.2175164
40.3024315
39.4102216
38.5336149
37.6668182
36.8051132
35.9445702
35.0819859
34.2148231
33.3411282
32.4594544
31.5687784
30.6684642
29.7583117
28.8386483
27.9104209
26.9752562
26.0354697
25.094005
64.2777545
56.2568213
51.0916127
48.5977537
46.8342739
45.3597929
44.1514184
43.1069608
42.1389315
41.2132312
40.3174515
39.4427685
38.5817392
37.728443
36.8780647
36.0265996
35.1707635
34.3079273
33.4360329
32.5534901
31.6590979
30.7520583
29.8320702
28.8994599
27.9553121
27.0015702
26.0410724
25.0774974
64.1430421
56.1256838
50.9692568
48.4877324
46.7397044
45.2829979
44.0936303
43.0686264
42.1199543
41.2130613
40.3351804
39.4772235
38.6315364
37.7920111
36.9536615
36.1123145
35.2645006
34.407387
33.5386693
32.656451
31.7591995
30.8458064
29.9157239
28.9691481
28.007212
27.0321503
26.0473885
25.0575107
64.0332948
56.0188342
50.8694828
48.3979671
46.6626698
45.2208603
44.0477277
43.0396935
42.1082931
41.2185892
40.3574924
39.5156569
38.685202
37.859801
37.0342499
36.2041368
35.3657252
34.5158667
33.65186
32.77134
31.8722698
30.9530382
30.012646
29.050963
28.0690153
27.0692555
26.0557476
25.0341883
63.9446757
55.9326193
50.7891163
48.3259248
46.6013494
45.1722754
44.0132641
43.0202836
42.1045377
41.2307777
40.3856388
39.5595413
38.7443839
37.9336169
37.1217905
36.3042106
35.4768062
34.6359999
33.7785522
32.9014647
32.0019917
31.0777686
30.1270609
29.1491194
28.1446079
27.1160405
26.0681337
25.0079446
63.8740186
55.8639993
50.7254483
48.2693456
46.5539972
45.1360299
43.9895328
43.0101423
42.1088216
41.2500833
40.4203417
39.6098206
38.8102274
38.0148028
37.2178482
36.414368
35.5998976
34.7703373
33.9217857
33.0504372
32.1525928
31.2248136
30.2642393
29.2690722
28.2392018
27.1769018
26.0874692
24.9796015
63.8186419
55.8103811
50.6761162
48.2261847
46.518938
45.1108418
43.9756353
43.008722
42.1209059
41.2765327
40.461855
39.6669537
38.8833923
38.1042338
37.3235553
36.5360595
35.7368574
34.9212697
34.0846294
33.222143
32.3288754
31.3999112
30.4307383
29.4178847
28.3598105
27.2579957
26.1180622
24.9506225
63.7762219
55.7695028
50.639019
48.1945635
46.4945575
45.0953819
43.9705238
43.0152356
42.1402355
41.3097712
40.5100021
39.7309354
38.9640469
38.2022799
37.4395377
36.6702534
35.889131
35.0909006
34.2700575
33.4206498
32.5361986
31.6098264
30.6346761
29.6047057
28.5159158
27.3680076
26.1662986
24.9234854
63.7447036
55.7393521
50.6122548
48.1727331
46.47929
45.088283
43.9730269
43.0286915
42.1659744
41.3490958
40.5642017
39.8012945
39.0518382
38.3087411
37.5658143
36.8173032
36.0575837
35.2808463
34.4807349
33.6500141
32.7803616
31.8623867
30.8860094
29.8413638
28.7204016
27.5193265
26.2417732
24.9023127
63.7222417
55.718113
50.5940793
48.1590496
46.4716109
45.088148
43.9818694
43.0479183
42.1970328
41.3934838
40.6234738
39.8770792
39.1458511
38.4227705
37.7016789
36.976777
36.2422664
35.4919381
34.7186728
33.9139285
33.0673123
32.1663615
31.1967261
30.1430327
28.9907997
27.7298284
26.3592537
24.8942529
63.7071618
55.7041289
50.5828796
48.1519589
46.4700343
45.0935594
43.9956882
43.0715889
42.2321025
41.4416106
40.6864438
39.9568475
39.2445689
38.5427944
37.8455645
37.1472458
36.4421096
35.7238101
34.9847129
34.2151334
33.4025667
32.5310364
31.5808002
30.5288293
29.3507314
28.0251091
26.5411949
24.9112194
63.6979369
55.6958826
50.5771598
48.1499912
46.4731182
45.1030892
44.0130571
43.0982606
42.2696825
41.4918706
40.7513646
40.0386702
39.3458464
38.6664413
37.9949061
37.3260482
36.6545553
35.9743645
35.2777999
34.5545012
33.7901774
32.9652628
32.0537014
31.0223578
29.8320677
28.442224
26.8213578
24.9699601
63.6931781
55.6919873
50.5755371
48.1517637
46.4794708
45.115326
44.0325264
43.126404
42.308112
41.5424251
40.8161572
40.1201576
39.446914
38.7905045
38.1460289
37.5090636
36.87516
36.2391325
35.5940211
34.9296908
34.2310004
33.4754905
32.6306802
31.6513827
30.4782235
29.0397083
27.2627111
25.110225
63.6916381
55.6911893
50.5767394
48.1559946
46.4877788
45.1289098
44.0526521
43.1544409
42.3456331
41.5912669
40.8784777
40.1985261
39.5444328
38.9109644
38.2941062
37.6905544
37.0972407
36.5106072
35.9254712
35.3333585
34.7200736
34.0621956
33.3222282
32.4424399
31.3386995
29.8959032
27.9740814
25.4431814
63.6922098
55.692369
50.5796368
48.1615205
46.4968335
45.1425573
44.0720339
43.1808119
42.3804641
41.6363066
40.9358193
40.2707156
39.6346206
39.0231088
38.4332451
37.8631622
37.311685
36.7777054
36.2591166
35.7510972
35.2433056
34.715218
34.1284383
33.4144224
32.4570762
31.0701872
29.0071417
25.9519141
63.6939186
55.6945628
50.5832548
48.1673127
46.5055499
45.1550983
44.0893757
43.2040449
42.4108865
41.6754835
40.9856538
40.3335659
39.7134665
39.1217842
38.5567628
38.0181702
37.5071036
37.0256116
36.575952
36.1592681
35.773127
35.406772
35.0317335
34.5827196
33.9183999
32.7433352
30.5333882
26.255596
63.6959575
55.6969803
50.586772
48.1725047
46.513005
45.1655236
44.1035433
43.2228304
42.435344
41.7068979
41.0256074
40.3840488
39.7770375
39.2017992
38.6577075
38.1461493
37.6705678
37.2364496
36.8511545
36.523499
36.2627311
36.0760383
35.9624991
35.8978468
35.7955672
35.4061174
33.9726895
28.5539945
73.4904433
63.0486753
55.8116217
51.9817235
49.1673176
46.8327616
44.9531328
43.3911434
42.0245867
40.7955038
39.6741703
38.6385609
37.6704983
36.7546624
35.8778715
35.0288821
34.198407
33.3790737
32.5652935
31.7530273
30.9395017
30.1229612
29.3024476
28.4776109
27.6485516
26.8156991
25.9797177
25.1414357
65.7747845
60.3783903
55.4534256
52.1814858
49.5085733
47.1737923
45.23611
43.6124531
42.193114
40.9210043
39.7667183
38.70678
37.7207879
36.7916648
35.9049951
35.048604
34.2125218
33.388924
32.5718892
31.757125
30.9416914
30.1237063
29.3021153
28.4764991
27.6469087
26.813735
25.977613
25.1393512
62.535162
59.0291584
55.0289491
51.9570958
49.4195984
47.1903713
45.2947296
43.6815469
42.2627078
40.9866355
39.8267762
38.7614575
37.7707116
36.8373329
35.9466864
35.0863998
34.2463726
33.4187507
32.5976934
31.7790035
30.959798
30.1382427
29.3133109
28.4845934
27.6521429
26.816348
25.9778413
25.1374333
60.9569712
57.871694
54.3496376
51.555522
49.2047319
47.1147915
45.304592
43.7390845
42.3475539
41.0858516
39.9313115
38.865457
37.8705778
36.9309025
36.0327199
35.1642489
34.3157763
33.4797061
32.6503904
31.8237956
30.9971342
30.1686017
29.3371751
28.502429
27.6643891
26.8234196
25.9801408
25.1353636
59.8493028
56.871223
53.6631565
51.1381993
48.9603647
46.9942753
45.2746505
43.7717668
42.4229566
41.189541
40.0517406
38.99343
37.9991597
37.0551711
36.1494145
35.2713942
34.4123356
33.5653016
32.7250671
31.8878682
31.0510918
30.2130061
29.3725997
28.5294298
27.6834896
26.8351167
25.9849236
25.1337366
59.0407158
56.1251171
53.095753
50.7484119
48.7006251
46.8374742
45.2024972
43.7651619
42.4654148
41.2680768
40.1553485
39.112471
38.1255365
37.1824999
36.2729801
35.3879455
34.5198048
33.6625105
32.8114688
31.9633128
31.1156881
30.2670319
29.416408
28.5634005
27.7080101
26.8505868
25.9917758
25.1324616
58.4330231
55.5530796
52.6234935
50.3928258
48.4458582
46.6685618
45.1072462
43.7303791
42.4786188
41.3186338
40.2338981
39.2105058
38.2355194
37.2980868
36.3891168
35.5008148
34.6266728
33.7615184
32.9014154
32.0434616
31.185613
30.326527
29.4654122
28.6019359
27.7361648
26.8685225
25.9997505
25.1308561
57.9598625
55.1004342
52.2318694
50.0810977
48.2110666
46.5028177
45.0026538
43.6782608
42.4701644
41.3456887
40.2889518
39.2865508
38.3261323
37.397605
36.4927636
35.6047253
34.7278292
33.8576267
32.990757
32.1247533
31.2578933
30.3890734
29.5176755
28.6434925
27.7667126
26.8878998
26.0079659
25.1281181
57.5831709
54.737171
51.9087165
49.8133852
48.0008418
46.3471228
44.8970876
43.6173286
42.4478015
41.3558486
40.325802
39.3444999
38.3999057
37.4823772
36.5842721
35.6993232
34.8224689
33.949795
33.0783834
32.2061205
31.3315696
30.4538463
29.5724955
28.6874577
27.7990865
26.9081476
26.0157972
25.1235274
57.2789825
54.442316
51.6413712
49.5853579
47.8159967
46.2053429
44.7963042
43.554196
42.4182529
41.3555357
40.3503204
39.3894887
38.4611301
37.5558269
36.6662558
35.7865226
34.9119466
34.0389619
33.1649453
32.2880358
31.4070098
30.5211394
29.6300955
28.7339691
27.8333065
26.9291261
26.0229006
25.1164982
57.0310554
54.2011018
51.4197802
49.3924747
47.6559989
46.0794823
44.7039704
43.4935366
42.3866771
41.3500362
40.3676697
39.4263618
38.5141885
37.6217953
36.7419931
35.8690701
34.9985428
34.127023
33.2520422
32.3718855
31.485436
30.5920237
29.6913957
28.7837716
27.8699002
26.9510907
26.0292016
25.1065798
56.8279644
54.0030029
51.2361791
49.230416
47.5193881
45.9701534
44.6222009
43.4385038
42.3568643
41.3434674
40.3820656
39.4592563
38.5630049
37.683903
36.8147583
35.9498919
35.0848616
34.21631
33.3417991
32.4596349
31.5686642
30.6681685
29.7578989
28.8381574
27.9098798
26.9746887
26.0348977
25.09345
56.6613733
53.8402342
51.0844494
49.0952758
47.4043123
45.8771646
44.5520898
43.3911402
42.331504
41.3389201
40.3968103
39.4915381
38.6108948
37.7453363
36.8875658
36.0318178
35.1735611
34.3093498
33.4366595
32.5536531
31.6589849
30.7517733
29.8316707
28.89898
27.9547766
27.001
26.0404874
25.0769186
56.5249881
53.706854
50.9597113
48.9836418
47.3088278
45.7998514
44.4940212
43.3526475
42.3124011
41.3386174
40.4143964
39.5258511
38.6605638
37.8088005
36.9630861
36.1174727
35.2672427
34.4087687
33.5392863
32.6566333
31.7591262
30.8455734
29.9153828
28.9687281
28.0067323
27.0316264
26.046836
25.0569483
56.4139074
53.5981959
50.858001
48.8925442
47.2310126
45.7372614
44.4478794
43.323596
42.3006626
41.3440699
40.4366261
39.5642001
38.7141522
37.8765287
37.0436223
36.2092402
35.3684182
34.5172295
33.6524956
32.7715722
31.872271
30.9528993
30.0124136
29.0506597
28.0686527
27.0688411
26.0552897
25.0337001
56.3242033
53.5104929
50.7760276
48.8193792
47.1690147
45.6882722
44.4131997
43.3040829
42.2968477
41.3562053
40.4647151
39.608025
38.7732806
37.9502948
37.1311036
36.309251
35.479461
34.6373655
33.7792297
32.9017741
32.0021032
31.0777707
30.1269953
29.1490016
28.1444403
27.1158203
26.0678579
25.0076164
56.2526411
53.4406221
50.7109978
48.7618351
47.1210647
45.6516592
44.3892665
43.2938431
42.3010758
41.3754639
40.499369
39.6582559
38.8390752
38.0314178
37.2270855
36.4193486
35.6025314
34.7717232
33.9225245
33.0508508
32.1528533
31.2250093
30.2644084
29.269224
28.2393298
27.1769908
26.0875005
24.979561
56.1964891
53.3859306
50.6604895
48.7178289
47.0854704
45.6261333
44.3751771
43.292325
42.313103
41.4018662
40.5408374
39.7153429
38.9121774
38.1207652
37.332715
36.540995
35.739484
34.9226889
34.0854481
33.2226897
32.3293273
31.4003595
30.4312214
29.4184092
28.3603631
27.2585494
26.1185783
24.9510605
56.1533869
53.3441133
50.6223584
48.6854548
47.0606044
45.6103597
44.3698816
43.2987404
42.3323733
41.4350593
40.588943
39.7792675
38.9927486
38.2187237
37.4486328
36.6751558
35.8917603
35.0923661
34.2709761
33.4213603
32.5368876
31.6105928
30.6355647
29.6057257
28.5170513
27.369222
26.167531
24.9246629
56.1212544
53.3131281
50.5946724
48.6629451
47.0448921
45.6029675
44.3722081
43.3120991
42.3580552
41.4743445
40.6430947
39.8495516
39.0804523
38.3251097
37.5748571
36.822182
36.0602265
35.2823734
34.4817762
33.6509223
32.7813379
31.863545
30.8874076
29.8430218
28.7223058
27.5214295
26.2439671
24.9044653
56.0982296
53.2911383
50.5756678
48.6486435
47.0368033
45.6025582
44.3808824
43.331235
42.3890662
41.5186915
40.7023045
39.9252575
39.1743893
38.4390766
37.7106796
36.9816438
36.2449377
35.4935466
34.7198643
33.9150741
33.0686335
32.1679927
31.198745
30.1454775
28.9936715
27.7330905
26.3627229
24.8976624
56.0826282
53.2764748
50.5637192
48.6409888
47.0348496
45.6077149
44.394548
43.3548296
42.4240912
41.5667662
40.7652085
40.004957
39.2730434
38.5590495
37.854537
37.1521175
36.4448305
35.7255274
34.9860921
34.216569
33.4043049
32.5332331
31.5835428
30.5321462
29.3545905
28.0294802
26.5458738
24.916169
56.0729186
53.2676139
50.5573246
48.6385085
47.0375889
45.6170173
44.4117863
43.3814321
42.4616192
41.6169711
40.8300709
40.0867213
39.374269
38.6826604
38.0038687
37.3309479
36.6573551
35.9762298
35.2794216
34.5563044
33.7924393
32.9681596
32.0573052
31.0265932
29.8365882
28.4464313
26.8239089
24.9710369
56.0677105
53.2631674
50.5550999
48.6398226
47.0436379
45.629059
44.4311385
43.4095032
42.4999949
41.6674754
40.8948129
40.1681611
39.4752991
38.8067057
38.1550045
37.5140207
36.8780784
36.2412018
35.5959674
34.9319812
34.2339518
33.479298
32.635387
31.6567806
30.4835758
29.0434277
27.2588759
25.0941176
56.065751
53.2618791
50.5557799
48.6436535
47.0516854
45.6424707
44.4511509
43.4374696
42.537466
41.7162723
40.9570911
40.246494
39.5727963
38.9271682
38.3031207
37.6956034
37.1003276
36.5129578
35.9278651
35.3363272
34.7239857
34.0672209
33.3281974
32.4485894
31.343725
29.8983493
27.9660775
25.4235984
56.0659314
53.2626344
50.5582357
48.6488359
47.0605134
45.6559616
44.4704271
43.4637752
42.5722514
41.7612732
41.0143996
40.3186606
39.6629788
39.039335
38.4423236
37.8683385
37.3149959
36.7804337
36.2621342
35.7550661
35.2487371
34.7223027
34.136486
33.4204095
32.454116
31.0426215
28.9330099
25.8384961
56.0673046
53.2644809
50.5614891
48.6543412
47.0690364
45.6683656
44.4876757
43.4869499
42.6026334
41.8004179
41.0642103
40.3814997
39.741833
39.138048
38.5659237
38.0234995
37.5106834
37.0288081
36.5797903
36.1646787
35.7810725
35.4181242
35.046537
34.5974496
33.9190321
32.6727075
30.2677804
25.4372182
56.0690924
53.2666329
50.5647236
48.659309
47.0763369
45.6786789
44.5017661
43.5056862
42.6270571
41.8318074
41.1041484
40.4319802
39.8054204
39.218107
38.6669547
38.1516345
37.6744236
37.2401422
36.8559093
36.5306493
36.274069
36.0942135
35.9915605
35.9437771
35.8645895
35.476661
33.9337057
27.2806847
70.5736721
61.765497
55.3252021
51.7182183
49.0320091
46.7723236
44.9202404
43.3639252
41.9936378
40.7571342
39.6287818
38.5887384
37.6194709
36.7054381
35.8327626
34.9893148
34.1649773
33.3517496
32.5436346
31.7363656
30.9270866
30.1140581
29.2963917
28.473829
27.6465638
26.8151077
25.9801941
25.1427085
62.8217049
59.3140572
55.2857691
52.1609391
49.5650478
47.2825529
45.3412979
43.6909174
42.2428508
40.9443972
39.768197
38.6921699
37.6959528
36.7617087
35.8739063
35.0191315
34.1862683
33.3665849
32.553557
31.7425541
30.9304661
30.1153444
29.2961407
28.4724841
27.644488
26.8126048
25.9775222
25.1400909
59.5798962
58.0807513
55.0711801
52.1275943
49.6370524
47.4428299
45.5143417
43.8414246
42.3697024
41.0515096
39.8585955
38.7688314
37.761521
36.8182577
35.9229896
35.0618358
34.2233015
33.3984178
32.5805635
31.7650725
30.9488235
30.12988
29.3071843
28.4803408
27.6494412
26.8149221
25.977463
25.1379116
58.0218507
56.9563986
54.4603068
51.814288
49.5148146
47.4604381
45.60869
43.96818
42.5099669
41.1960164
40.0005907
38.90369
37.8864929
36.9319038
36.0247742
35.1518118
34.3018685
33.4661722
32.6382174
31.8134054
30.9886143
30.1618648
29.3320568
28.4987347
27.6619187
26.8219841
25.9795738
25.1355232
56.9170121
55.9536402
53.7903773
51.4385235
49.3201525
47.3886235
45.6235533
44.039437
42.6177528
41.3277451
40.1462456
39.0546612
38.0358293
37.074464
36.1571319
35.2719865
34.4089782
33.560099
32.7193311
31.8823606
31.046208
30.2089102
29.3693305
28.5269663
27.6817686
26.8340541
25.9844326
25.1337375
56.1034389
55.1999619
53.2240499
51.0639534
49.0802753
47.2505554
45.5689073
44.0485514
42.6734853
41.4177367
40.2605794
39.1843262
38.1727844
37.2120498
36.2902639
35.3971063
34.5238395
33.6634769
32.8107287
31.9617564
31.1138705
30.2652682
29.4148651
28.5621637
27.7071064
26.8500051
25.9914899
25.132442
55.488791
54.6185785
52.7445397
50.7083629
48.8295423
47.0862465
45.4785422
44.0187276
42.6910137
41.4718658
40.3423947
39.2857679
38.2865141
37.33169
36.4105839
35.5140664
34.6345104
33.7658657
32.9035678
32.0442992
31.1857264
30.3262882
29.4650443
28.6015707
27.7358682
26.8683187
25.9996478
25.1308567
55.0084249
54.1564602
52.3434656
50.3913623
48.5927244
46.9194259
45.3733692
43.9665666
42.6826964
41.4989768
40.3974892
39.3620261
38.3776516
37.4320894
36.5154252
35.6193828
34.7371629
33.8634512
32.9942862
32.1268153
31.2590544
30.3897056
29.5180126
28.6436715
27.7668062
26.8879463
26.0079912
25.1281427
54.6251953
53.7848629
52.0114774
50.1171795
48.3782022
46.7603062
45.2649892
43.9035513
42.658792
41.5078772
40.4332692
39.4191168
38.4508239
37.5165457
36.6068996
35.7141905
34.8321966
33.9561311
33.0824814
32.2087599
31.3332795
30.4549749
29.5732599
28.68798
27.7994341
26.9083644
26.0159179
25.1235814
54.3154565
53.483052
51.7365334
49.882881
48.1885204
46.6144743
45.1608337
43.8378145
42.6272715
41.5060032
40.4565018
39.4630457
38.5112039
37.5893688
36.688473
35.8011824
34.9216412
34.0454045
33.1692544
32.2909566
31.4090384
30.5225881
29.6311501
28.7347348
27.8338453
26.9294828
26.0231124
25.1165979
54.062961
53.2361606
51.5086581
49.6845065
48.0240004
46.4847398
45.0652614
43.7746178
42.5937589
41.4989942
40.4726386
39.4989308
38.5634627
37.6547102
36.7637488
35.8834264
35.0080782
34.1334357
33.2564366
32.374983
31.4876934
30.5937165
29.6926834
28.7847448
27.8706156
26.9515903
26.0295207
25.1067495
53.856163
53.0334773
51.3199565
49.5178497
47.8834487
46.37197
44.9805971
43.717298
42.5621919
41.4910702
40.4859663
39.5309695
38.6115902
37.7162715
36.8360987
35.9639576
35.094227
34.222672
33.3462575
32.4628827
31.5711176
30.6700752
29.7594015
28.8393365
27.9107846
26.975354
26.0353515
25.093718
53.6865754
52.8670101
51.1641035
49.3789191
47.7650327
46.2760159
44.9079731
43.6679346
42.5352889
41.4853334
40.4997831
39.5625169
38.658894
37.7772403
36.9085502
36.0456322
35.182784
34.3156858
33.4411937
32.5570399
31.661617
30.7538849
29.8333932
28.9003841
27.9559003
27.0018649
26.0411086
25.0773122
53.547759
52.7306292
51.0360156
49.264165
47.6667409
46.1961727
44.847741
43.6277049
42.5148344
41.4839842
40.516554
39.5961883
38.7080534
37.840302
36.9837633
36.1310772
35.2763643
34.4151059
33.5438917
32.6601445
31.7619303
30.8478957
29.9173457
28.9703897
28.0081136
27.0327291
26.0476556
25.0574855
53.4346879
52.6195114
50.9315543
49.1704795
47.5865573
46.1314178
44.799728
43.5971349
42.5019012
41.4885032
40.5380526
39.6339605
38.7611842
37.9076695
37.0640303
36.2226751
35.377467
34.5235628
33.6571561
32.7752012
31.8752513
30.9554512
30.0146496
29.0526208
28.070335
27.0702173
26.0563261
25.0343737
53.3433331
52.5297645
50.8472886
49.0951385
47.522539
46.0805566
44.7634116
43.5762771
42.4970139
41.4997898
40.5654698
39.6772519
38.8198877
37.9811048
37.1512765
36.3225415
35.4884294
34.6436771
33.7839389
32.9055231
32.0052759
31.0805838
30.1295483
29.1513108
28.1464667
27.1174929
26.0690978
25.0083632
53.2703811
52.4581694
50.7803163
49.0357329
47.4728387
46.042302
44.7380256
43.5648275
42.5002625
41.5182614
40.5994929
39.7269766
38.8852797
38.0619232
37.2470426
36.4324848
35.6114022
34.7780094
33.9272857
33.0547357
32.1562502
31.2281307
30.2673355
29.2719381
28.2417383
27.1789541
26.0888644
24.9802016
53.2130402
52.4020004
50.7281323
48.9901045
47.4357017
46.0153129
44.7226254
43.5622022
42.5113794
41.5439211
40.6403573
39.7835755
38.9579995
38.1509814
37.3524463
36.553962
35.7482578
34.9289566
34.0902792
33.226745
32.3330023
31.4038604
30.4346034
29.4215999
28.3631841
27.2607451
26.1198622
24.9511934
53.1689055
52.3588983
50.6885313
48.9562913
47.4094531
45.9982141
44.7161285
43.5675889
42.529791
41.5764024
40.6878767
39.8470289
39.0382018
38.2486418
37.4681269
36.687959
35.9004482
35.0986367
34.275917
33.4256499
32.5409316
31.6145901
30.6395312
29.6095023
28.5203119
27.3715011
26.1682938
24.923453
53.1358646
52.3267822
50.6595384
48.9324857
47.3924839
45.9896061
44.7173397
43.5799796
42.5546523
41.6149972
40.7414595
39.9168561
39.1255306
38.3547222
37.5941234
36.8348363
36.0688535
35.2886922
34.4869005
33.6555583
32.7859101
31.8682452
30.892194
29.8475936
28.7260745
27.5235283
26.2433453
24.9001884
53.112033
52.3037886
50.6393601
48.9170047
47.3832412
45.9880708
44.7249692
43.5981956
42.5848719
41.6586755
40.8001186
39.9921046
39.2190897
38.4683965
37.7297357
36.9941755
36.2535511
35.4999927
34.7252988
33.9202506
33.0740154
32.1737746
31.2048059
30.1512904
28.9981935
27.7347139
26.3593496
24.8872527
53.095712
52.288231
50.6263526
48.9082709
47.3802234
45.9921803
44.7376508
43.6209116
42.6191368
41.7061081
40.8624808
40.0713503
39.3173827
38.5880957
37.8734083
37.1645711
36.4535061
35.7322279
34.9920444
34.2226143
33.4109928
32.5407985
31.5917746
30.5401592
29.3605267
28.0303344
26.5375376
24.894606
53.0853616
52.2785754
50.6190038
48.9048041
47.3819821
46.000509
44.7539635
43.6466827
42.6559442
41.7556944
40.9268166
40.1526844
39.4182691
38.7114572
38.0225938
37.3433879
36.6662037
35.9833751
35.2862144
34.563753
33.801286
32.9787994
32.0695127
31.0390073
29.8458997
28.4466381
26.8059141
24.9259058
53.0795877
52.2734293
50.6159264
48.9052219
47.3871323
46.0116526
44.7724584
43.673981
42.6936431
41.8056131
40.9910671
40.233723
39.5189861
38.8352865
38.1736338
37.5265314
36.8872484
36.2490571
35.6040717
34.9416528
34.2463417
33.4952538
32.6550053
31.6784698
30.5023011
29.0483941
27.2296381
25.0055577
53.0771388
52.2715407
50.6158609
48.9082482
47.3943688
46.024255
44.7916963
43.7012436
42.7304943
41.8538771
41.0528966
40.3116895
39.6162043
38.9555736
38.3217129
37.7082831
37.1099981
36.5218595
35.9379138
35.3493961
34.7420321
34.0921288
33.3611251
32.4884163
31.3842273
29.9243527
27.9442173
25.3086966
53.0769101
52.2717999
50.6176814
48.9127295
47.4024908
46.0370428
44.8102949
43.7269306
42.7647355
41.898408
41.1098074
40.3835331
39.7061482
39.0676087
38.4609371
37.8812834
37.3253493
36.790748
36.2748758
35.773053
35.2754619
34.7619295
34.1930393
33.4948401
32.5384562
31.1084603
28.9221246
25.6833787
53.0779526
52.2732466
50.6204113
48.917655
47.4104305
46.0488633
44.8269785
43.7495887
42.7946614
41.9371566
41.1592819
40.4461008
39.7848083
39.166231
38.584604
38.0367775
37.5218505
37.0408238
36.5958911
36.1891279
35.8200173
35.4804379
35.1440485
34.7419114
34.1114532
32.8607716
30.2952859
24.8845455
53.0794857
52.2750892
50.6232419
48.9221776
47.417282
46.0587254
44.8406311
43.7679237
42.8187293
41.9682352
41.1989555
40.4963688
39.8482473
39.2462316
38.6857209
38.1652537
37.6864134
37.2539107
36.8755887
36.5623023
36.3274712
36.1855929
36.1476651
36.2063006
36.2902251
36.0928414
34.6087914
26.826185
69.3466883
60.953022
54.9192218
51.5201175
48.957497
46.7723734
44.9512998
43.4001667
42.0226749
40.7733088
39.6307088
38.5778909
37.5988765
36.6786738
35.8032262
34.9597681
34.1373665
33.3272391
32.5227516
31.7191855
30.9134046
30.1035116
29.2885536
28.4682743
27.6429005
26.8129887
25.9793191
25.1428207
61.6444039
58.544234
54.9512537
52.0409767
49.564713
47.356746
45.4411329
43.7864196
42.3225943
41.0040225
39.8067252
38.7114663
37.6996708
36.7541837
35.8593506
35.001101
34.167412
33.3486486
32.5375447
31.7289207
30.9192925
30.1065033
29.2894023
28.467573
27.6411261
26.8105348
25.9765179
25.1399561
58.4251784
57.347667
54.813349
52.1060143
49.7388651
47.6192472
45.7068479
44.0126147
42.5091602
41.1584666
39.9345508
38.8173128
37.7875917
36.8275162
35.9207845
35.0527264
34.2107821
33.38491
32.5675852
31.7534738
30.9389896
30.1218832
29.3009347
28.4756799
27.6461706
26.8128337
25.9763646
25.137636
56.8940969
56.2602877
54.2512239
51.8511242
49.6813708
47.7062317
45.8694049
44.2002297
42.7013469
41.3469853
40.1136483
38.9830673
37.9379535
36.9617566
36.0390434
35.1556911
34.2994398
33.4603865
32.6310563
31.8061126
30.9819166
30.1561247
29.3273866
28.4951274
27.6593094
26.82026
25.9786103
25.1352062
55.8053871
55.2766005
53.6049806
51.5062118
49.522488
47.6721397
45.9212926
44.3049991
42.8379335
41.5033806
40.2808221
39.1530875
38.104226
37.1192862
36.1844412
35.2870022
34.4158545
33.5619184
32.7182564
31.8798437
31.0431825
30.2059462
29.3667327
28.5248651
27.6802048
26.8330024
25.9838365
25.1335415
54.9982087
54.531057
53.0498731
51.1474064
49.3008532
47.5524946
45.8843428
44.3299766
42.9067645
41.6038697
40.4038996
39.2905412
38.2484939
37.2638857
36.3242545
35.4183354
34.5363182
33.6701897
32.8138017
31.9626637
31.1136049
30.2644707
29.4139339
28.5613284
27.7064718
26.8495851
25.9912677
25.1324033
54.3849982
53.9524299
52.5743729
50.7978336
49.0575503
47.3959229
45.8015692
44.3070331
42.9297487
41.6618726
40.4884328
39.3941167
38.3642171
37.3856314
36.4468653
35.5377171
34.649426
33.7749102
32.9087721
32.0470804
31.1870533
30.3267975
29.4651563
28.6015593
27.7358593
26.8683305
25.9996821
25.1309237
53.9036442
53.4900624
52.1733536
50.4818027
48.8226899
47.2314442
45.6987748
44.2570269
42.922981
41.689752
40.543679
39.4702214
38.4551778
37.4860217
36.551956
35.6435442
34.7527947
33.8733369
33.0003781
32.1304652
31.2611814
30.3909191
29.5187313
28.6441683
27.7671861
26.8882231
26.0081792
25.1282661
53.5184385
53.1169065
51.8397658
50.2063678
48.6074714
47.0719186
45.5901255
44.1938114
42.8987649
41.6980879
40.5786763
39.5264504
38.5275501
37.5698418
36.6430151
35.7381703
34.847857
33.9662124
33.088887
32.2127897
31.3358054
30.4565871
29.5743731
28.688824
27.8000717
26.9088136
26.0162057
25.12374
53.2065022
52.8131415
51.5626767
49.9699452
48.4159204
46.9244418
45.4845418
44.1268723
42.8661764
41.6951744
40.6008799
39.5694089
38.587074
37.641964
36.724066
35.8248223
34.9371337
34.0554685
33.1757623
32.2951694
31.4118038
30.5244988
29.632581
28.7358425
27.834675
26.9300653
26.0234836
25.1167926
52.9519345
52.5643192
51.3326309
49.7692756
48.249193
46.7926614
45.3871504
44.0621262
42.8313421
41.6870011
40.6159793
39.6043886
38.6385707
37.7066923
36.7988776
35.9067467
35.0233888
34.1434439
33.2629906
32.3793243
31.4906778
30.5959141
29.6943893
28.7860698
27.8716117
26.9522995
26.0299799
25.1069915
52.7433185
52.3599026
51.1419589
49.6004707
48.1064843
46.6778329
45.3006262
44.0032076
42.7984247
41.6779314
40.6283375
39.6356213
38.6860459
37.7677426
36.8708458