/*--------------------------------*- C++ -*----------------------------------*\
| =========                 |                                                 |
| \\      /  F ield         | foam-extend: Open Source CFD                    |
|  \\    /   O peration     | Version:     4.1                                |
|   \\  /    A nd           | Web:         http://www.foam-extend.org         |
|    \\/     M anipulation  |                                                 |
\*---------------------------------------------------------------------------*/
FoamFile
{
    version     2.0;
    format      ascii;
    class       surfaceScalarField;
    location    "0.05";
    object      phi;
}
// * * * * * * * * * * * * * * * * * * * * * * * * * * * * * * * * * * * * * //

dimensions      [0 3 -1 0 0 0 0];

internalField   nonuniform List<scalar> 
102656
(
0.000395358267
5.29766977e-05
5.16650348e-05
0.000281924385
5.81468992e-05
5.52869843e-05
0.000200892229
4.22567284e-05
3.87754303e-05
0.000149409935
2.74380771e-05
2.40442172e-05
0.000117369659
1.74846509e-05
1.45556254e-05
9.67602618e-05
1.14467764e-05
9.16262131e-06
8.29541344e-05
7.68360629e-06
6.12252231e-06
7.34443837e-05
5.17544001e-06
4.33431117e-06
6.67140274e-05
3.45958346e-06
3.27077467e-06
6.1824375e-05
2.26802176e-06
2.62163412e-06
5.82179171e-05
1.42094091e-06
2.18551707e-06
5.55543418e-05
8.11356561e-07
1.85221976e-06
5.36067638e-05
3.76806942e-07
1.57077208e-06
5.22114952e-05
7.51858069e-08
1.32008348e-06
5.12439911e-05
-1.25599016e-07
1.09310392e-06
5.06056392e-05
-2.50730272e-07
8.89082186e-07
5.02166662e-05
-3.20203403e-07
7.0917656e-07
5.00125527e-05
-3.49989423e-07
5.54103124e-07
4.99415414e-05
-3.52278122e-07
4.23289098e-07
4.99625244e-05
-3.35999739e-07
3.15015116e-07
5.0043195e-05
-3.07559862e-07
2.26888073e-07
5.01584491e-05
-2.71436934e-07
1.56181404e-07
5.02889948e-05
-2.30676044e-07
1.00129187e-07
5.04201069e-05
-1.87282569e-07
5.61694533e-08
5.05405532e-05
-1.42549147e-07
2.21015937e-08
5.06418133e-05
-9.7358211e-08
-3.90177452e-09
5.071748e-05
-5.23846595e-08
-2.32820365e-08
-8.23563602e-09
-3.71317187e-08
5.07628472e-05
0.000462048775
2.76852828e-05
6.32426416e-05
0.000393055447
5.21469339e-05
7.49932944e-05
0.000324239451
5.00816507e-05
6.09910756e-05
0.000267025537
4.05333654e-05
4.4118627e-05
0.000223651711
3.08319302e-05
3.00265473e-05
0.000192132112
2.29545575e-05
2.0011819e-05
0.000169272643
1.69937648e-05
1.35493116e-05
0.000152499326
1.24445777e-05
9.50418144e-06
0.000140072792
8.91652608e-06
6.96959231e-06
0.000130812197
6.18030131e-06
5.34831645e-06
0.000123906922
4.07227232e-06
4.25394503e-06
0.000118790234
2.46931687e-06
3.45872777e-06
0.000115047144
1.27785508e-06
2.84204168e-06
0.00011236096
4.20327747e-07
2.34104172e-06
0.000110484802
-1.71471579e-07
1.92203256e-06
0.000109224391
-5.57086944e-07
1.56676775e-06
0.000108426457
-7.87140207e-07
1.26487219e-06
0.000107970299
-9.03287697e-07
1.00945682e-06
0.000107761374
-9.38490142e-07
7.95136014e-07
0.000107726027
-9.17657082e-07
6.1700346e-07
0.000107807161
-8.58907817e-07
4.70212031e-07
0.000107960714
-7.75085404e-07
3.50094883e-07
0.00010815278
-6.75011561e-07
2.52267671e-07
0.000108357251
-5.64529111e-07
1.7277479e-07
0.000108553889
-4.47430895e-07
1.08243291e-07
0.000108726892
-3.26282343e-07
5.59219203e-08
0.000108863967
-2.03073013e-07
1.36132521e-08
-7.96426073e-08
-2.04154317e-08
0.000108955791
0.000447824845
1.52539526e-05
6.46064866e-05
0.000388430377
3.5790707e-05
7.57506962e-05
0.000335920963
4.05392154e-05
6.20518514e-05
0.000292074081
3.76015977e-05
4.67786508e-05
0.000257034572
3.21432441e-05
3.37281924e-05
0.000229936004
2.62866949e-05
2.37664287e-05
0.00020913911
2.0911714e-05
1.68789427e-05
0.000193065288
1.62182677e-05
1.23001306e-05
0.00018055648
1.21821376e-05
9.24319819e-06
0.000170810741
8.77422373e-06
7.15181856e-06
0.000163259575
5.96864922e-06
5.65478998e-06
0.00015747706
3.72674304e-06
4.52509249e-06
0.000153120926
1.99514915e-06
3.63884219e-06
0.000149905127
7.0802226e-07
2.92810775e-06
0.000147589508
-2.07508944e-07
2.35165806e-06
0.000145974638
-8.24227434e-07
1.88201178e-06
0.000144897352
-1.20904735e-06
1.49919368e-06
0.000144226133
-1.41957762e-06
1.18750989e-06
0.000143856198
-1.50262554e-06
9.3407034e-07
0.000143704703
-1.49452273e-06
7.28359816e-07
0.000143706487
-1.42238493e-06
5.61693358e-07
0.00014381052
-1.30579152e-06
4.26671094e-07
0.000143976876
-1.15843188e-06
3.17063386e-07
0.000144174126
-9.89555337e-07
2.27774969e-07
0.000144377258
-8.05324412e-07
1.54761595e-07
0.000144566158
-6.10063218e-07
9.48809938e-08
0.00014472465
-4.07256017e-07
4.56922534e-08
-2.00212973e-07
5.27468478e-09
0.000144839946
0.000440541691
9.96932416e-06
6.47429389e-05
0.000376100187
2.46154596e-05
7.5616752e-05
0.000325077134
3.05650491e-05
6.09972199e-05
0.000286582924
3.06814215e-05
4.54143879e-05
0.00025798999
2.81356287e-05
3.26005515e-05
0.000236779467
2.45178257e-05
2.29793949e-05
0.00022071512
2.06114775e-05
1.63645859e-05
0.000208181651
1.67854906e-05
1.19662491e-05
0.00019817021
1.3190301e-05
9.00327842e-06
0.000190080974
9.91761826e-06
6.94584405e-06
0.000183552355
7.04372004e-06
5.45354783e-06
0.000178342193
4.61744841e-06
4.31945763e-06
0.000174255951
2.65118637e-06
3.43020518e-06
0.000171118005
1.12309248e-06
2.7228757e-06
0.0001687662
-1.34337706e-08
2.15773088e-06
0.000167053805
-8.1817481e-07
1.70634343e-06
0.000165852051
-1.35384994e-06
1.34655759e-06
0.000165050943
-1.67875425e-06
1.06028536e-06
0.000164558611
-1.84278087e-06
8.32488358e-07
0.000164299461
-1.88614969e-06
6.50777073e-07
0.000164211787
-1.84007159e-06
5.05361138e-07
0.000164245507
-1.72795504e-06
3.88442926e-07
0.000164360064
-1.56671047e-06
2.9372069e-07
0.000164522361
-1.36816634e-06
2.16314355e-07
0.000164705033
-1.1406144e-06
1.52619111e-07
0.000164885261
-8.90276551e-07
9.99852063e-08
0.000165044084
-6.2248349e-07
5.64047817e-08
-3.42448031e-07
2.02895904e-08
0.00016516603
0.000437954243
7.07543138e-06
6.49396504e-05
0.000368705251
1.77728377e-05
7.60916136e-05
0.000315109362
2.32294715e-05
6.09314669e-05
0.000276752703
2.45042774e-05
4.45338028e-05
0.000250198928
2.34974547e-05
3.11919468e-05
0.000231963229
2.13752776e-05
2.13782456e-05
0.00021906624
1.87339456e-05
1.477452e-05
0.000209472398
1.58952857e-05
1.04840479e-05
0.00020197488
1.30268841e-05
7.66093648e-06
0.000195904809
1.02427022e-05
5.74498757e-06
0.000190912198
7.64814949e-06
4.38818567e-06
0.000186813145
5.33280111e-06
3.38370314e-06
0.000183491049
3.35481078e-06
2.61847358e-06
0.000180849839
1.73555048e-06
2.02875335e-06
0.000178798808
4.6436216e-07
1.57323685e-06
0.000177250187
-4.91462769e-07
1.22190996e-06
0.000176121
-1.17599558e-06
9.51333332e-07
0.000175335401
-1.6359267e-06
7.4277348e-07
0.000174825896
-1.91470585e-06
5.81431626e-07
0.00017453368
-2.04959554e-06
4.55663106e-07
0.000174408295
-2.07107018e-06
3.56382872e-07
0.000174406699
-2.00323602e-06
2.76876936e-07
0.000174492208
-1.86434927e-06
2.12129809e-07
0.00017463329
-1.66782478e-06
1.5857736e-07
0.00017480252
-1.42372077e-06
1.1387564e-07
0.000174976004
-1.1402219e-06
7.64610221e-08
0.000175133153
-8.2481693e-07
4.51845517e-08
-4.85064127e-07
1.90960123e-08
0.000175256673
0.000436684871
5.28641272e-06
6.51041485e-05
0.00036457733
1.33972493e-05
7.64831313e-05
0.000308614992
1.80480784e-05
6.11437317e-05
0.000269102874
1.97242752e-05
4.42921221e-05
0.000242516232
1.95564454e-05
3.05276512e-05
0.000225083814
1.8374818e-05
2.04328775e-05
0.000213506397
1.66385899e-05
1.3672775e-05
0.000205475939
1.46029281e-05
9.32281574e-06
0.00019958165
1.2409366e-05
6.51180825e-06
0.000195012977
1.0157469e-05
4.65390742e-06
0.000191334363
7.94475688e-06
3.38200817e-06
0.000188323846
5.86562195e-06
2.47769712e-06
0.000185862096
3.99638948e-06
1.82017082e-06
0.000183872999
2.38517726e-06
1.33947081e-06
0.00018229769
1.05056222e-06
9.8910779e-07
0.000181083868
-1.2925467e-08
7.3528502e-07
0.000180182236
-8.2658208e-07
5.52218072e-07
0.000179546145
-1.41983673e-06
4.20002725e-07
0.000179131786
-1.82409958e-06
3.23752663e-07
0.000178898616
-2.06904669e-06
2.52620569e-07
0.000178809812
-2.18078865e-06
1.98522544e-07
0.000178832107
-2.18118594e-06
1.55654633e-07
0.000178935195
-2.08770685e-06
1.20268928e-07
0.000179091155
-1.91398091e-06
9.01956667e-08
0.000179274129
-1.67107156e-06
6.43758629e-08
0.000179460407
-1.36879993e-06
4.2299608e-08
0.000179628741
-1.01677518e-06
2.36240045e-08
-6.25068558e-07
7.98700963e-09
0.00017976076
0.000435963071
4.09892991e-06
6.52244123e-05
0.000362159491
1.04199228e-05
7.67809058e-05
0.000304479833
1.43030562e-05
6.14246802e-05
0.000263781974
1.60463207e-05
4.43758133e-05
0.000236617554
1.63473903e-05
3.03734746e-05
0.00021913182
1.57780906e-05
2.00824615e-05
0.000207910161
1.46829103e-05
1.31773377e-05
0.000200525434
1.32565289e-05
8.73112633e-06
0.000195454164
1.16089686e-05
5.87166839e-06
0.000191785444
9.82026042e-06
4.00593165e-06
0.00018900146
7.97252512e-06
2.75621554e-06
0.000186820339
6.15194728e-06
1.89479834e-06
0.000185086224
4.43719775e-06
1.29330707e-06
0.000183707499
2.88857492e-06
8.75327009e-07
0.000182625782
1.54319041e-06
5.89089575e-07
0.000181799608
4.16390761e-07
3.9685661e-07
0.000181195806
-4.9320346e-07
2.70423912e-07
0.000180785171
-1.19780973e-06
1.88608426e-07
0.000180540485
-1.71550482e-06
1.36091671e-07
0.000180435634
-2.06635122e-06
1.02154285e-07
0.000180445619
-2.26992811e-06
7.91541169e-08
0.000180546313
-2.34368037e-06
6.1798697e-08
0.000180713822
-2.30229009e-06
4.7072378e-08
0.000180924146
-2.1580701e-06
3.37644143e-08
0.000181153411
-1.92202035e-06
2.16826416e-08
0.000181378506
-1.6048961e-06
1.10011822e-08
0.000181577885
-1.21803252e-06
1.87942389e-09
-7.73891615e-07
-5.68239264e-09
0.000181732392
0.000435525431
3.25579297e-06
6.53177065e-05
0.000360643258
8.28426773e-06
7.70178287e-05
0.000301743304
1.15102659e-05
6.1692745e-05
0.000260069586
1.31645231e-05
4.45555146e-05
0.000232284632
1.37100604e-05
3.04222824e-05
0.000214508584
1.35370666e-05
2.00170731e-05
0.000203274768
1.28925865e-05
1.30241404e-05
0.000196102175
1.19173255e-05
8.51179905e-06
0.000191412283
1.06912714e-05
5.60758972e-06
0.000188238547
9.27603179e-06
3.71796617e-06
0.000186009637
7.73923631e-06
2.46219952e-06
0.000184396261
6.1565172e-06
1.60880687e-06
0.000183205244
4.60257369e-06
1.02564104e-06
0.000182320039
3.14125901e-06
6.32521225e-07
0.000181669342
1.81959475e-06
3.74291984e-07
0.000181208473
6.66682405e-07
2.10575994e-07
0.000180907783
-3.03913499e-07
1.11399438e-07
0.000180745593
-1.09031047e-06
5.46911069e-08
0.00018070381
-1.69840728e-06
2.46849512e-08
0.000180765642
-2.13858391e-06
1.03989247e-08
0.000180914513
-2.4229021e-06
4.10068695e-09
0.000181133095
-2.5629181e-06
6.54046371e-10
0.000181402331
-2.56898587e-06
-2.54291646e-09
0.000181701152
-2.45073282e-06
-6.15981088e-09
0.000182007048
-2.21794953e-06
-9.96693142e-09
0.000182297078
-1.88141727e-06
-1.35082128e-08
0.000182549068
-1.45358034e-06
-1.64414088e-08
-9.49004979e-07
-1.86307464e-08
0.000182742813
0.000435238532
2.62697127e-06
6.53902903e-05
0.000359635017
6.68640815e-06
7.72013746e-05
0.000299865363
9.36552299e-06
6.19143982e-05
0.000257429347
1.08638164e-05
4.47367246e-05
0.000229095263
1.1513291e-05
3.05308554e-05
0.000210988137
1.15832825e-05
2.00609115e-05
0.000199616819
1.12444381e-05
1.30194682e-05
0.000192471756
1.05923888e-05
8.47000089e-06
0.000187944355
9.6809502e-06
5.53772481e-06
0.000185036505
8.55527066e-06
3.62861012e-06
0.000183144476
7.27017633e-06
2.36108918e-06
0.000181907275
5.89103796e-06
1.50268128e-06
0.000181103403
4.48632905e-06
9.20116201e-07
0.000180593968
3.11893296e-06
5.31760445e-07
0.000180292544
1.84011274e-06
2.80905569e-07
0.000180146233
6.87125541e-07
1.25866909e-07
0.00018012284
-3.16316886e-07
3.57958219e-08
0.000180202167
-1.1577802e-06
-1.18576102e-08
0.000180370124
-1.83315991e-06
-3.3203992e-08
0.000180615128
-2.3439804e-06
-3.96090746e-08
0.000180925754
-2.69442515e-06
-3.91059092e-08
0.000181288812
-2.88922746e-06
-3.67508562e-08
0.000181687978
-2.93334414e-06
-3.48097162e-08
0.000182103544
-2.83259503e-06
-3.37040626e-08
0.000182513135
-2.59443305e-06
-3.3107058e-08
0.000182892958
-2.22867278e-06
-3.25667874e-08
0.000183219305
-1.74815255e-06
-3.17755737e-08
-1.16921155e-06
-3.0601191e-08
0.000183470114
0.000435039992
2.1406099e-06
6.54463689e-05
0.000358934999
5.44877921e-06
7.73426221e-05
0.000298535833
7.67386613e-06
6.20908225e-05
0.00025551079
8.99378296e-06
4.4895074e-05
0.000226715464
9.66143147e-06
3.06471865e-05
0.000208293851
9.86671209e-06
2.01381828e-05
0.00019674632
9.72403792e-06
1.30679339e-05
0.000189547831
9.29384138e-06
8.49703684e-06
0.000185071846
8.60877907e-06
5.5481571e-06
0.00018230095
7.7000935e-06
3.62607353e-06
0.000180611204
6.61146475e-06
2.3484583e-06
0.000179620969
5.39877881e-06
1.48249547e-06
0.000179089
4.12354942e-06
8.94748742e-07
0.000178859322
2.84536636e-06
5.03245666e-07
0.000178832413
1.61623192e-06
2.50789674e-07
0.000178946733
4.77541275e-07
9.52639895e-08
0.000179165572
-5.40730546e-07
5.5746313e-09
0.000179467492
-1.41867472e-06
-4.10239293e-08
0.000179839608
-2.14434668e-06
-6.09289752e-08
0.000180272864
-2.71130687e-06
-6.59302526e-08
0.000180758427
-3.11574079e-06
-6.42490866e-08
0.000181284923
-3.35502827e-06
-6.06963738e-08
0.000181836788
-3.42798157e-06
-5.72276219e-08
0.000182394011
-3.33558885e-06
-5.42295448e-08
0.000182932863
-3.08179305e-06
-5.14917252e-08
0.000183427268
-2.67435525e-06
-4.87239341e-08
0.000183850584
-2.12572564e-06
-4.57434232e-08
-1.45370782e-06
-4.24722486e-08
0.000184177552
0.000434897377
1.7534585e-06
6.54897755e-05
0.000358431435
4.46292492e-06
7.74517952e-05
0.000297566961
6.30865819e-06
6.22296836e-05
0.000254085654
7.44914338e-06
4.50259465e-05
0.000224910236
8.08459627e-06
3.07522525e-05
0.000206207093
8.35175342e-06
2.02181033e-05
0.000194476907
8.32500945e-06
1.31292136e-05
0.000187187306
8.03869035e-06
8.54475261e-06
0.000182701334
7.5093377e-06
5.58541255e-06
0.000179989667
6.75707689e-06
3.65468377e-06
0.000178415563
5.81614823e-06
2.36942065e-06
0.000177583935
4.7338763e-06
1.49653172e-06
0.000177240106
3.56476836e-06
9.02609697e-07
0.000177215776
2.36397426e-06
5.057222e-07
0.000177401286
1.18206898e-06
2.48652534e-07
0.000177727814
6.17169948e-08
8.92958028e-08
0.000178154153
-9.63683856e-07
-3.38499372e-09
0.000178656924
-1.86920535e-06
-5.2238475e-08
0.00017922328
-2.63670826e-06
-7.39935521e-08
0.000179845124
-3.25233724e-06
-8.08129457e-08
0.00018051444
-3.70427678e-06
-8.07793783e-08
0.000181219941
-3.98227639e-06
-7.82523281e-08
0.000181945273
-4.07829139e-06
-7.50215191e-08
0.000182668589
-3.98731649e-06
-7.15894165e-08
0.000183363178
-3.70841409e-06
-6.79692549e-08
0.00018399891
-3.24600891e-06
-6.40786835e-08
0.000184544295
-2.61125088e-06
-5.98599429e-08
-1.8230994e-06
-5.52843221e-08
0.00018496897
0.000434791603
1.4382794e-06
6.55235758e-05
0.000358057698
3.66007854e-06
7.7536751e-05
0.000296841591
5.18601095e-06
6.23387523e-05
0.000253003479
6.15566765e-06
4.51315885e-05
0.000223516112
6.7307604e-06
3.08412024e-05
0.000204566623
7.01111976e-06
2.02901228e-05
0.000192660155
7.04304332e-06
1.31884341e-05
0.00018526202
6.84220401e-06
8.59462076e-06
0.000180729867
6.41343968e-06
5.62805186e-06
0.000178027419
5.76836393e-06
3.69116156e-06
0.000176510081
4.93342624e-06
2.40006144e-06
0.000175774207
3.94838845e-06
1.52136325e-06
0.000175556214
2.86106559e-06
9.2169709e-07
0.000175679286
1.72162593e-06
5.19276597e-07
0.000176026533
5.77773323e-07
2.57048246e-07
0.000176523695
-5.28571367e-07
9.31253138e-08
0.00017712608
-1.56260772e-06
-3.46052145e-09
0.000177808771
-2.4961625e-06
-5.57328015e-08
0.000178558737
-3.30582769e-06
-8.08450748e-08
0.000179368056
-3.97064109e-06
-9.1013853e-08
0.000180228514
-4.47090464e-06
-9.38284031e-08
0.000181127926
-4.78844405e-06
-9.32435437e-08
0.000182048072
-4.90737522e-06
-9.10622879e-08
0.000182963926
-4.81517138e-06
-8.79995088e-08
0.000183844067
-4.50424629e-06
-8.43083419e-08
0.000184652145
-3.97401328e-06
-8.00737077e-08
0.00018534931
-3.23310622e-06
-7.53090824e-08
-2.30123289e-06
-6.99976777e-08
0.00018589744
0.000434710876
1.17726285e-06
6.55501403e-05
0.000357772375
2.99504411e-06
7.76035343e-05
0.000296284399
4.24905967e-06
6.24249268e-05
0.000252163139
5.0604831e-06
4.52164431e-05
0.000222418374
5.56078371e-06
3.09147428e-05
0.000203254662
5.82301191e-06
2.03518184e-05
0.000191183028
5.87371554e-06
1.32409621e-05
0.000183669295
5.71561109e-06
8.64032519e-06
0.000179068944
5.34537027e-06
5.66842165e-06
0.000176342111
4.76830769e-06
3.72688976e-06
0.000174839781
4.00455552e-06
2.43120226e-06
0.000174153198
3.0872912e-06
1.5476823e-06
0.000174013204
2.05806653e-06
9.42994547e-07
0.000174237541
9.61750418e-07
5.35538055e-07
0.00017470468
-1.57889158e-07
2.68523096e-07
0.000175336842
-1.26103636e-06
1.00301592e-07
0.000176087375
-2.31295846e-06
-1.8208497e-10
0.000176930785
-3.28323921e-06
-5.63324564e-08
0.000177854153
-4.14362262e-06
-8.55727807e-08
0.000178849635
-4.86642255e-06
-9.9700194e-08
0.00017990866
-5.42422138e-06
-1.05707075e-07
0.00018101792
-5.7903015e-06
-1.07402214e-07
0.000182156757
-5.9394725e-06
-1.06738781e-07
0.000183295843
-5.84959024e-06
-1.04665656e-07
0.0001843972
-5.50398303e-06
-1.01618426e-07
0.000185415619
-4.89467533e-06
-9.77560789e-08
0.000186301567
-4.02596835e-06
-9.30846816e-08
-2.91760543e-06
-8.75469032e-08
0.000187005486
0.000434647605
9.5837294e-07
6.55712839e-05
0.000357548702
2.43720828e-06
7.76567373e-05
0.000295845531
3.45845277e-06
6.24937785e-05
0.000251495467
4.12559803e-06
4.52849486e-05
0.000221535853
4.5451716e-06
3.09752261e-05
0.000202185211
4.76993234e-06
2.04037225e-05
0.000189960438
4.8123853e-06
1.32861015e-05
0.000182329271
4.66644964e-06
8.6803283e-06
0.000177646965
4.3233288e-06
5.70434684e-06
0.000174872287
3.78378947e-06
3.75919791e-06
0.000173354164
3.0628694e-06
2.45980927e-06
0.000172681197
2.18800196e-06
1.57225916e-06
0.000172581189
1.19481245e-06
9.63261796e-07
0.000172868952
1.22541045e-07
5.51445072e-07
0.000173420457
-9.89750369e-07
2.80355403e-07
0.000174156447
-2.10538483e-06
1.08356471e-07
0.000175029972
-3.19057737e-06
4.09375673e-09
0.000176016128
-4.21312208e-06
-5.6274225e-08
0.000177102867
-5.1404299e-06
-8.99318977e-08
0.000178283128
-5.93866932e-06
-1.08014756e-07
0.000179548761
-6.57264628e-06
-1.17208582e-07
0.000180885883
-7.00602895e-06
-1.21392461e-07
0.000182271411
-7.20227022e-06
-1.22727751e-07
0.000183670888
-7.12672107e-06
-1.22343608e-07
0.000185037821
-6.75016802e-06
-1.20745097e-07
0.000186314905
-6.05370317e-06
-1.18054493e-07
0.0001874375
-5.03438101e-06
-1.14180795e-07
-3.71058044e-06
-1.08956943e-07
0.000188339433
0.000434596738
7.73257872e-07
6.55883772e-05
0.000357368821
1.96531945e-06
7.76998046e-05
0.000295491208
2.78645263e-06
6.25496127e-05
0.000250952454
3.32346496e-06
4.53408879e-05
0.00022081068
3.6616986e-06
3.10252461e-05
0.000201295321
3.83795656e-06
2.04473343e-05
0.000188928506
3.85459994e-06
1.33245997e-05
0.000181180382
3.69970392e-06
8.71486943e-06
0.000176407052
3.36097018e-06
5.73568885e-06
0.000173567298
2.83591337e-06
3.78763098e-06
0.000172009582
2.13540446e-06
2.48518149e-06
0.000171321631
1.28172553e-06
1.59422905e-06
0.000171230185
3.04676943e-07
9.81580429e-07
0.000171549023
-7.62492335e-07
5.66194867e-07
0.000172153576
-1.8860449e-06
2.91739796e-07
0.00017296498
-3.0331546e-06
1.16363742e-07
0.000173937592
-4.17143564e-06
8.24542009e-09
0.000175048417
-5.26747782e-06
-5.64703265e-08
0.000176287635
-6.28528083e-06
-9.43677308e-08
0.000177650634
-7.18551429e-06
-1.16154437e-07
0.000179131411
-7.924902e-06
-1.28520499e-07
0.000180716957
-8.45604238e-06
-1.3553084e-07
0.000182382572
-8.7283535e-06
-1.39528786e-07
0.000184088332
-8.69076124e-06
-1.4171797e-07
0.00018577727
-8.29655475e-06
-1.42549099e-07
0.00018737604
-7.51047929e-06
-1.41992514e-07
0.000188798929
-6.31751811e-06
-1.39749436e-07
-4.73191182e-06
-1.35442671e-07
0.000189955704
0.000434554822
6.15991066e-07
6.56024444e-05
0.000357220538
1.56431069e-06
7.77352923e-05
0.000295198113
2.21318592e-06
6.25956896e-05
0.000250500367
2.63392613e-06
4.53872855e-05
0.000220201323
2.89361165e-06
3.10671313e-05
0.000200538824
3.0161595e-06
2.04842955e-05
0.000188039326
2.99650288e-06
1.33575943e-05
0.000180175372
2.81892867e-06
8.7447285e-06
0.000175304413
2.46898399e-06
5.762945e-06
0.000172386052
1.94181543e-06
3.81245867e-06
0.000170769311
1.24473682e-06
2.50741025e-06
0.000170042314
3.9515357e-07
1.6135694e-06
0.000169932114
-5.83100558e-07
9.97977972e-07
0.000170252964
-1.6631245e-06
5.79781547e-07
0.000170881462
-2.81701994e-06
3.02476271e-07
0.000171740683
-4.01618551e-06
1.23809069e-07
0.000172787747
-5.23026507e-06
1.17640736e-08
0.000174003169
-6.42583741e-06
-5.70633254e-08
0.000175381512
-7.56484109e-06
-9.87834081e-08
0.000176923223
-8.60316778e-06
-1.2405774e-07
0.000178627234
-9.48915289e-06
-1.39759166e-07
0.000180484065
-1.01627086e-05
-1.5016359e-07
0.000182469378
-1.05559411e-05
-1.57723849e-07
0.000184538372
-1.05961487e-05
-1.63605794e-07
0.000186621942
-1.0212036e-05
-1.68086693e-07
0.000188625986
-9.34367273e-06
-1.70849616e-07
0.000190435597
-7.95589607e-06
-1.71231883e-07
-6.05339968e-06
-1.68487457e-07
0.000191925572
0.000434519458
4.82287209e-07
6.56142464e-05
0.000357095377
1.22330207e-06
7.77650879e-05
0.000294949928
1.72419632e-06
6.2634441e-05
0.000250115284
2.04208825e-06
4.54264812e-05
0.000219677835
2.22826458e-06
3.11027973e-05
0.000199881814
2.29610993e-06
2.05160714e-05
0.00018725705
2.23507712e-06
1.33861888e-05
0.000179278197
2.0270463e-06
8.77073407e-06
0.000174304186
1.65626172e-06
5.78673236e-06
0.000171295826
1.11603816e-06
3.83413741e-06
0.000169603297
4.10433282e-07
2.52683367e-06
0.000168815879
-4.48073135e-07
1.63064516e-06
0.000168661854
-1.44187121e-06
1.01279665e-06
0.000168957179
-2.55074483e-06
5.92295563e-07
0.000169580748
-3.7529041e-06
3.12314384e-07
0.00017045879
-5.02454938e-06
1.30320513e-07
0.000171552598
-6.33865541e-06
1.45807854e-08
0.000172848271
-7.66366502e-06
-5.7845829e-08
0.000174347641
-8.961214e-06
-1.0299619e-07
0.000176059767
-1.01835646e-05
-1.317296e-07
0.000177992626
-1.12708264e-05
-1.51183935e-07
0.000180144574
-1.21488363e-05
-1.65819442e-07
0.000182495475
-1.27287197e-05
-1.78121154e-07
0.000184997946
-1.29094955e-05
-1.8912308e-07
0.000187570022
-1.25853102e-05
-1.98800049e-07
0.000190091511
-1.16587977e-05
-2.0636428e-07
0.000192407256
-1.00610999e-05
-2.10542057e-07
-7.77696897e-06
-2.09940798e-07
0.000194340765
0.00043448896
3.68984155e-07
6.56243416e-05
0.000356987395
9.34292784e-07
7.77905725e-05
0.000294735131
1.30880956e-06
6.26676508e-05
0.000249780142
1.53685053e-06
4.54602262e-05
0.000219218567
1.65612211e-06
3.11337175e-05
0.000199299424
1.6714296e-06
2.05438231e-05
0.000186555034
1.56817316e-06
1.34112936e-05
0.000178461742
1.32673271e-06
8.79360487e-06
0.000173379814
9.30558685e-07
5.80762937e-06
0.000170271315
3.71397907e-07
3.85313978e-06
0.000168487778
-3.49968781e-07
2.54394007e-06
0.000167619979
-1.22623038e-06
1.64595748e-06
0.00016739805
-2.24619739e-06
1.02625603e-06
0.0001676402
-3.39650593e-06
6.03610909e-07
0.000168228282
-4.66191687e-06
3.20930394e-07
0.000169092543
-6.02462009e-06
1.35807148e-07
0.000170199926
-7.4629537e-06
1.69146362e-08
0.000171544545
-8.9496932e-06
-5.8590495e-08
0.000173138944
-1.04486449e-05
-1.06966965e-07
0.000175005379
-1.19105962e-05
-1.39402321e-07
0.000177166605
-1.32687294e-05
-1.63322445e-07
0.000179635457
-1.44343398e-05
-1.83345889e-07
0.000182402758
-1.52940726e-05
-2.01946202e-07
0.000185423902
-1.57106972e-05
-2.1993981e-07
0.00018860561
-1.55301831e-05
-2.3683404e-07
0.000191796311
-1.45984083e-05
-2.51091402e-07
0.00019478572
-1.2790105e-05
-2.60405029e-07
-1.00502588e-05
-2.62223782e-07
0.000197321231
0.000434462149
2.73700706e-07
6.56331344e-05
0.000356892423
6.91269352e-07
7.78127482e-05
0.000294545608
9.59001315e-07
6.26966221e-05
0.000249482825
1.10984698e-06
4.54897874e-05
0.000218808006
1.16999007e-06
3.11609518e-05
0.000198773703
1.13733646e-06
2.05683968e-05
0.000185913942
9.94344876e-07
1.34335893e-05
0.000177706236
7.20531726e-07
8.813905e-06
0.000172511833
2.98847611e-07
5.82611427e-06
0.00016929381
-2.80533513e-07
3.86995472e-06
0.000167404928
-1.02037478e-06
2.55928737e-06
0.000166437546
-1.91862974e-06
1.65978287e-06
0.000166123609
-2.9705781e-06
1.03831753e-06
0.000166283559
-4.16994501e-06
6.13488525e-07
0.000166802322
-5.50891412e-06
3.28233135e-07
0.000167614695
-6.97745989e-06
1.40464673e-07
0.000168694664
-8.56190983e-06
1.8986087e-08
0.000170046815
-1.02425734e-05
-5.92704719e-08
0.000171698202
-1.19890771e-05
-1.10953508e-07
0.000173689852
-1.37545941e-05
-1.47650376e-07
0.000176067012
-1.54687764e-05
-1.77110691e-07
0.000178866825
-1.7030011e-05
-2.04138978e-07
0.000182102324
-1.8298378e-05
-2.31190674e-07
0.000185742362
-1.90919611e-05
-2.58771815e-07
0.000189688756
-1.91909126e-05
-2.85663584e-07
0.000193755181
-1.83557435e-05
-3.09089496e-07
0.000197656809
-1.63668221e-05
-3.24911682e-07
-1.30915772e-05
-3.28474438e-07
0.0002010266
0.000434438209
1.94581843e-07
6.56409087e-05
0.000356807592
4.89553509e-07
7.783233e-05
0.000294375771
6.68536428e-07
6.27222861e-05
0.000249214971
7.54584583e-07
4.55160639e-05
0.00021843544
7.64271968e-07
3.11852482e-05
0.000198292274
6.90115846e-07
2.05903875e-05
0.000185320477
5.12584332e-07
1.34535567e-05
0.000176998143
2.10826592e-07
8.83203913e-06
0.000171686986
-2.32599306e-07
5.84260381e-06
0.000168350676
-8.29343789e-07
3.88511919e-06
0.000166342907
-1.58575529e-06
2.57314993e-06
0.000165257125
-2.50498189e-06
1.6721337e-06
0.00016482648
-3.58877901e-06
1.04884584e-06
0.000164873041
-4.83837759e-06
6.21869637e-07
0.00016528434
-6.25460861e-06
3.34393779e-07
0.000165999804
-7.83742518e-06
1.44499281e-07
0.000167001334
-9.58424415e-06
2.08044873e-08
0.000168305965
-1.14870347e-05
-6.0169447e-08
0.000169959017
-1.35265546e-05
-1.15573599e-07
0.000172026649
-1.56647291e-05
-1.57494067e-07
0.000174586433
-1.78344424e-05
-1.94114902e-07
0.000177713778
-1.9926816e-05
-2.30537393e-07
0.000181461761
-2.17771026e-05
-2.69255092e-07
0.000185832323
-2.31521561e-05
-3.10364235e-07
0.000190738539
-2.37456363e-05
-3.51490079e-07
0.000195962545
-2.31920643e-05
-3.87684754e-07
0.000201121714
-2.11147819e-05
-4.11209055e-07
-1.72314428e-05
-4.132023e-07
0.000205674782
0.000434416604
1.3011794e-07
6.56478584e-05
0.00035673101
3.25337974e-07
7.78498074e-05
0.000294221953
4.32319261e-07
6.27452744e-05
0.000248971149
4.65717044e-07
4.55396715e-05
0.000218093998
4.34300083e-07
3.12071235e-05
0.000197847304
3.26604207e-07
2.06102063e-05
0.000184766375
1.21981636e-07
1.3471531e-05
0.000176329288
-2.00437362e-07
8.84835071e-06
0.000170897684
-6.58561333e-07
5.85756565e-06
0.000167435307
-1.26582907e-06
3.89886108e-06
0.000165296051
-2.03203254e-06
2.58553255e-06
0.000164073465
-2.96534472e-06
1.68294906e-06
0.000163500804
-4.07393442e-06
1.05781472e-06
0.000163400541
-5.36701622e-06
6.28901007e-07
0.000163661709
-6.8553964e-06
3.39618382e-07
0.000164227601
-8.55126161e-06
1.47943172e-07
0.000165087791
-1.04665545e-05
2.21199156e-08
0.000166272634
-1.26100013e-05
-6.18760346e-08
0.000167848666
-1.49807398e-05
-1.21845697e-07
0.000169913608
-1.75591077e-05
-1.70561045e-07
0.000172589
-2.02929508e-05
-2.1688225e-07
0.000176007218
-2.30785658e-05
-2.66467731e-07
0.000180288328
-2.5736181e-05
-3.22029638e-07
0.000185501273
-2.79819179e-05
-3.83181026e-07
0.000191604871
-2.94034843e-05
-4.4574747e-07
0.000198369844
-2.94559328e-05
-5.01102869e-07
0.000205294573
-2.75051116e-05
-5.34397728e-07
-2.29814057e-05
-5.28132528e-07
0.00021157267
0.000434397006
7.90006366e-08
6.56541107e-05
0.000356661529
1.95326438e-07
7.78654884e-05
0.000294081972
2.45896508e-07
6.27659796e-05
0.000248748209
2.38489567e-07
4.5560991e-05
0.000217779821
1.7578948e-07
3.12268991e-05
0.000197434595
4.37159176e-08
2.06281135e-05
0.000184247585
-1.78796279e-07
1.34877885e-05
0.000175696312
-5.12373986e-07
8.86320819e-06
0.000170141765
-9.75186953e-07
5.87117191e-06
0.000166547025
-1.58225235e-06
3.91116277e-06
0.00016426509
-2.34653714e-06
2.59643953e-06
0.000162888322
-3.28080769e-06
1.69223053e-06
0.000162148483
-4.39943869e-06
1.06534248e-06
0.000161866624
-5.71994653e-06
6.34789012e-07
0.000161931338
-7.26410464e-06
3.4399396e-07
0.000162287679
-9.05824732e-06
1.5064327e-07
0.000162930928
-1.11322721e-05
2.2466329e-08
0.00016390361
-1.35174132e-05
-6.52706216e-08
0.000165294348
-1.62402186e-05
-1.31258975e-07
0.000167237326
-1.93127688e-05
-1.8931664e-07
0.000169910082
-2.27162346e-05
-2.49472233e-07
0.000173525178
-2.63751492e-05
-3.18512513e-07
0.000178308169
-3.01193401e-05
-3.99831406e-07
0.000184450832
-3.36320727e-05
-4.92507663e-07
0.000192025538
-3.63889427e-05
-5.89245754e-07
0.000200849211
-3.76048939e-05
-6.74709809e-07
0.000210298857
-3.62347723e-05
-7.19983025e-07
-3.11596657e-05
-6.9412093e-07
0.000219171239
0.000434379255
4.00118797e-08
6.56597337e-05
0.000356598587
9.64521836e-08
7.78795426e-05
0.000293954794
1.05081962e-07
6.27846077e-05
0.000248544749
6.83195203e-08
4.55802151e-05
0.000217491394
-1.55912787e-08
3.12447354e-05
0.000197052954
-1.62152352e-07
2.0644309e-05
0.00018376375
-3.921509e-07
1.35025586e-05
0.000175100211
-7.25549947e-07
8.87671366e-06
0.000169422081
-1.18043388e-06
5.88337771e-06
0.000165690839
-1.77308353e-06
3.92207332e-06
0.000163257387
-2.51898657e-06
2.60590103e-06
0.000161711328
-3.43483152e-06
1.70008257e-06
0.000160780942
-4.5406851e-06
1.07163264e-06
0.000160283449
-5.862133e-06
6.39679733e-07
0.000160103956
-7.43210083e-06
3.474872e-07
0.000160185516
-9.29212314e-06
1.52313925e-07
0.000160524767
-1.1492744e-05
2.12185983e-08
0.000161171992
-1.40931511e-05
-7.14876515e-08
0.000162234733
-1.71571528e-05
-1.45806674e-07
0.000163884243
-2.07450065e-05
-2.17272147e-07
0.000166362997
-2.48969125e-05
-2.98076759e-07
0.000169988182
-2.96028695e-05
-3.97465356e-07
0.000175140928
-3.47511048e-05
-5.20981936e-07
0.00018222276
-4.00458999e-05
-6.68004969e-07
0.00019154827
-4.48882459e-05
-8.26205936e-07