/*--------------------------------*- C++ -*----------------------------------*\
| =========                 |                                                 |
| \\      /  F ield         | foam-extend: Open Source CFD                    |
|  \\    /   O peration     | Version:     4.1                                |
|   \\  /    A nd           | Web:         http://www.foam-extend.org         |
|    \\/     M anipulation  |                                                 |
\*---------------------------------------------------------------------------*/
FoamFile
{
    version     2.0;
    format      ascii;
    class       pointVectorField;
    location    "0.05";
    object      pointMotionU;
}
// * * * * * * * * * * * * * * * * * * * * * * * * * * * * * * * * * * * * * //

dimensions      [0 1 -1 0 0 0 0];

internalField   nonuniform List<vector> 
40832
(
(0 0 0)
(0 0 0)
(0 0 0)
(0 0 0)
(0 0 0)
(0 0 0)
(0 0 0)
(0 0 0)
(0 0 0)
(0 0 0)
(0 0 0)
(0 0 0)
(0 0 0)
(0 0 0)
(0 0 0)
(0 0 0)
(0 0 0)
(0 0 0)
(0 0 0)
(0 0 0)
(0 0 0)
(0 0 0)
(0 0 0)
(0 0 0)
(0 0 0)
(0 0 0)
(0 0 0)
(0 0 0)
(0 0 0)
(0 0 0)
(0 0 0)
(0 0 0)
(0 0 0)
(0 0 0)
(0 0 0)
(0 0 0)
(0 0 0)
(0 0 0)
(0 0 0)
(0 0 0)
(0 0 0)
(0 0 0)
(0 0 0)
(0 0 0)
(0 0 0)
(0 0 0)
(0 0 0)
(0 0 0)
(0 0 0)
(0 0 0)
(0 0 0)
(0 0 0)
(0 0 0)
(0 0 0)
(0 0 0)
(0 0 0)
(0 0 0)
(0 0 0)
(0 0 0)
(0 0 0)
(0 0 0)
(0 0 0)
(0 0 0)
(0 0 0)
(0 0 0)
(0 0 0)
(0 0 0)
(0 0 0)
(0 0 0)
(0 0 0)
(0 0 0)
(0 0 0)
(0 0 0)
(0 0 0)
(0 0 0)
(0 0 0)
(0 0 0)
(0 0 0)
(0 0 0)
(0 0 0)
(0 0 0)
(0 0 0)
(0 0 0)
(0 0 0)
(0 0 0)
(0 0 0)
(0 0 0)
(0 0 0)
(0 0 0)
(0 0 0)
(0 0 0)
(0 0 0)
(0 0 0)
(0 0 0)
(0 0 0)
(0 0 0)
(0 0 0)
(0 0 0)
(0 0 0)
(0 0 0)
(0 0 0)
(0 0 0)
(0 0 0)
(0 0 0)
(0 0 0)
(0 0 0)
(0 0 0)
(0 0 0)
(0 0 0)
(0 0 0)
(0 0 0)
(0 0 0)
(0 0 0)
(0 0 0)
(0 0 0)
(0 0 0)
(0 0 0)
(0 0 0)
(0 0 0)
(0 0 0)
(0 0 0)
(0 0 0)
(0 0 0)
(0 0 0)
(0 0 0)
(0 0 0)
(0 0 0)
(0 0 0)
(0 0 0)
(0 0 0)
(0 0 0)
(0 0 0)
(0 0 0)
(0 0 0)
(0 0 0)
(0 0 0)
(0 0 0)
(0 0 0)
(0 0 0)
(0 0 0)
(0 0 0)
(0 0 0)
(0 0 0)
(0 0 0)
(0 0 0)
(0 0 0)
(0 0 0)
(0 0 0)
(0 0 0)
(0 0 0)
(0 0 0)
(0 0 0)
(0 0 0)
(0 0 0)
(0 0 0)
(0 0 0)
(0 0 0)
(0 0 0)
(0 0 0)
(0 0 0)
(0 0 0)
(0 0 0)
(0 0 0)
(0 0 0)
(0 0 0)
(0 0 0)
(0 0 0)
(0 0 0)
(0 0 0)
(0 0 0)
(0 0 0)
(0 0 0)
(0 0 0)
(0 0 0)
(0 0 0)
(0 0 0)
(0 0 0)
(0 0 0)
(0 0 0)
(0 0 0)
(0 0 0)
(0 0 0)
(0 0 0)
(0 0 0)
(0 0 0)
(0 0 0)
(0 0 0)
(0 0 0)
(0 0 0)
(0 0 0)
(0 0 0)
(0 0 0)
(0 0 0)
(0 0 0)
(0 0 0)
(0 0 0)
(0 0 0)
(0 0 0)
(0 0 0)
(0 0 0)
(0 0 0)
(0 0 0)
(0 0 0)
(0 0 0)
(0 0 0)
(0 0 0)
(0 0 0)
(0 0 0)
(0 0 0)
(0 0 0)
(0 0 0)
(0 0 0)
(0 0 0)
(0 0 0)
(0 0 0)
(0 0 0)
(0 0 0)
(0 0 0)
(0 0 0)
(0 0 0)
(0 0 0)
(0 0 0)
(0 0 0)
(0 0 0)
(0 0 0)
(0 0 0)
(0 0 0)
(0 0 0)
(0 0 0)
(0 0 0)
(0 0 0)
(0 0 0)
(0 0 0)
(0 0 0)
(0 0 0)
(0 0 0)
(0 0 0)
(0 0 0)
(0 0 0)
(0 0 0)
(0 0 0)
(0 0 0)
(0 0 0)
(0 0 0)
(0 0 0)
(0 0 0)
(0 0 0)
(0 0 0)
(0 0 0)
(0 0 0)
(0 0 0)
(0 0 0)
(0 0 0)
(0 0 0)
(0 0 0)
(0 0 0)
(0 0 0)
(0 0 0)
(0 0 0)
(0 0 0)
(0 0 0)
(0 0 0)
(0 0 0)
(0 0 0)
(0 0 0)
(0 0 0)
(0 0 0)
(0 0 0)
(0 0 0)
(0 0 0)
(0 0 0)
(0 0 0)
(0 0 0)
(0 0 0)
(0 0 0)
(0 0 0)
(0 0 0)
(0 0 0)
(0 0 0)
(0 0 0)
(0 0 0)
(0 0 0)
(0 0 0)
(0 0 0)
(0 0 0)
(0 0 0)
(0 0 0)
(0 0 0)
(0 0 0)
(0 0 0)
(0 0 0)
(0 0 0)
(0 0 0)
(0 0 0)
(0 0 0)
(0 0 0)
(0 0 0)
(0 0 0)
(0 0 0)
(0 0 0)
(0 0 0)
(0 0 0)
(0 0 0)
(0 0 0)
(0 0 0)
(0 0 0)
(0 0 0)
(0 0 0)
(0 0 0)
(0 0 0)
(0 0 0)
(0 0 0)
(0 0 0)
(0 0 0)
(0 0 0)
(0 0 0)
(0 0 0)
(0 0 0)
(0 0 0)
(0 0 0)
(0 0 0)
(0 0 0)
(0 0 0)
(0 0 0)
(0 0 0)
(0 0 0)
(0 0 0)
(0 0 0)
(0 0 0)
(0 0 0)
(0 0 0)
(0 0 0)
(0 0 0)
(0 0 0)
(0 0 0)
(0 0 0)
(0 0 0)
(0 0 0)
(0 0 0)
(0 0 0)
(0 0 0)
(0 0 0)
(0 0 0)
(0 0 0)
(0 0 0)
(0 0 0)
(0 0 0)
(0 0 0)
(0 0 0)
(0 0 0)
(0 0 0)
(0 0 0)
(0 0 0)
(0 0 0)
(0 0 0)
(0 0 0)
(0 0 0)
(0 0 0)
(0 0 0)
(0 0 0)
(0 0 0)
(0 0 0)
(0 0 0)
(0 0 0)
(0 0 0)
(0 0 0)
(0 0 0)
(0 0 0)
(0 0 0)
(0 0 0)
(0 0 0)
(0 0 0)
(0 0 0)
(0 0 0)
(0 0 0)
(0 0 0)
(0 0 0)
(0 0 0)
(0 0 0)
(0 0 0)
(0 0 0)
(0 0 0)
(0 0 0)
(0 0 0)
(0 0 0)
(0 0 0)
(0 0 0)
(0 0 0)
(0 0 0)
(0 0 0)
(0 0 0)
(0 0 0)
(0 0 0)
(0 0 0)
(0 0 0)
(0 0 0)
(0 0 0)
(0 0 0)
(0 0 0)
(0 0 0)
(0 0 0)
(0 0 0)
(0 0 0)
(0 0 0)
(0 0 0)
(0 0 0)
(0 0 0)
(0 0 0)
(0 0 0)
(0 0 0)
(0 0 0)
(0 0 0)
(0 0 0)
(0 0 0)
(0 0 0)
(0 0 0)
(0 0 0)
(0 0 0)
(0 0 0)
(0 0 0)
(0 0 0)
(0 0 0)
(0 0 0)
(0 0 0)
(0 0 0)
(0 0 0)
(0 0 0)
(0 0 0)
(0 0 0)
(0 0 0)
(0 0 0)
(0 0 0)
(0 0 0)
(0 0 0)
(0 0 0)
(0 0 0)
(0 0 0)
(0 0 0)
(0 0 0)
(0 0 0)
(0 0 0)
(0 0 0)
(0 0 0)
(0 0 0)
(0 0 0)
(0 0 0)
(0 0 0)
(0 0 0)
(0 0 0)
(0 0 0)
(0 0 0)
(0 0 0)
(0 0 0)
(0 0 0)
(0 0 0)
(0 0 0)
(0 0 0)
(0 0 0)
(0 0 0)
(0 0 0)
(0 0 0)
(0 0 0)
(0 0 0)
(0 0 0)
(0 0 0)
(0 0 0)
(0 0 0)
(0 0 0)
(0 0 0)
(0 0 0)
(0 0 0)
(0 0 0)
(0 0 0)
(0 0 0)
(0 0 0)
(0 0 0)
(0 0 0)
(0 0 0)
(0 0 0)
(0 0 0)
(0 0 0)
(0 0 0)
(0 0 0)
(0 0 0)
(0 0 0)
(0 0 0)
(0 0 0)
(0 0 0)
(0 0 0)
(0 0 0)
(0 0 0)
(0 0 0)
(0 0 0)
(0 0 0)
(0 0 0)
(0 0 0)
(0 0 0)
(0 0 0)
(0 0 0)
(0 0 0)
(0 0 0)
(0 0 0)
(0 0 0)
(0 0 0)
(0 0 0)
(0 0 0)
(0 0 0)
(0 0 0)
(0 0 0)
(0 0 0)
(0 0 0)
(0 0 0)
(0 0 0)
(0 0 0)
(0 0 0)
(0 0 0)
(0 0 0)
(0 0 0)
(0 0 0)
(0 0 0)
(0 0 0)
(0 0 0)
(0 0 0)
(0 0 0)
(0 0 0)
(0 0 0)
(0 0 0)
(0 0 0)
(0 0 0)
(0 0 0)
(0 0 0)
(0 0 0)
(0 0 0)
(0 0 0)
(0 0 0)
(0 0 0)
(0 0 0)
(0 0 0)
(0 0 0)
(0 0 0)
(0 0 0)
(0 0 0)
(0 0 0)
(0 0 0)
(0 0 0)
(0 0 0)
(0 0 0)
(0 0 0)
(0 0 0)
(0 0 0)
(0 0 0)
(0 0 0)
(0 0 0)
(0 0 0)
(0 0 0)
(0 0 0)
(0 0 0)
(0 0 0)
(0 0 0)
(0 0 0)
(0 0 0)
(0 0 0)
(0 0 0)
(0 0 0)
(0 0 0)
(0 0 0)
(0 0 0)
(0 0 0)
(0 0 0)
(0 0 0)
(0 0 0)
(0 0 0)
(0 0 0)
(0 0 0)
(0 0 0)
(0 0 0)
(0 0 0)
(0 0 0)
(0 0 0)
(0 0 0)
(0 0 0)
(0 0 0)
(0 0 0)
(0 0 0)
(0 0 0)
(0 0 0)
(0 0 0)
(0 0 0)
(0 0 0)
(0 0 0)
(0 0 0)
(0 0 0)
(0 0 0)
(0 0 0)
(0 0 0)
(0 0 0)
(0 0 0)
(0 0 0)
(0 0 0)
(0 0 0)
(0 0 0)
(0 0 0)
(0 0 0)
(0 0 0)
(0 0 0)
(0 0 0)
(0 0 0)
(0 0 0)
(0 0 0)
(0 0 0)
(0 0 0)
(0 0 0)
(0 0 0)
(0 0 0)
(0 0 0)
(0 0 0)
(0 0 0)
(0 0 0)
(0 0 0)
(0 0 0)
(0 0 0)
(0 0 0)
(0 0 0)
(0 0 0)
(0 0 0)
(0 0 0)
(0 0 0)
(0 0 0)
(0 0 0)
(0 0 0)
(0 0 0)
(0 0 0)
(0 0 0)
(0 0 0)
(0 0 0)
(0 0 0)
(0 0 0)
(0 0 0)
(0 0 0)
(0 0 0)
(0 0 0)
(0 0 0)
(0 0 0)
(0 0 0)
(0 0 0)
(0 0 0)
(0 0 0)
(0 0 0)
(0 0 0)
(0 0 0)
(0 0 0)
(0 0 0)
(0 0 0)
(0 0 0)
(0 0 0)
(0 0 0)
(0 0 0)
(0 0 0)
(0 0 0)
(0 0 0)
(0 0 0)
(0 0 0)
(0 0 0)
(0 0 0)
(0 0 0)
(0 0 0)
(0 0 0)
(0 0 0)
(0 0 0)
(0 0 0)
(0 0 0)
(0 0 0)
(0 0 0)
(0 0 0)
(0 0 0)
(0 0 0)
(0 0 0)
(0 0 0)
(0 0 0)
(0 0 0)
(0 0 0)
(0 0 0)
(0 0 0)
(0 0 0)
(0 0 0)
(0 0 0)
(0 0 0)
(0 0 0)
(0 0 0)
(0 0 0)
(0 0 0)
(0 0 0)
(0 0 0)
(0 0 0)
(0 0 0)
(0 0 0)
(0 0 0)
(0 0 0)
(0 0 0)
(0 0 0)
(0 0 0)
(0 0 0)
(0 0 0)
(0 0 0)
(0 0 0)
(0 0 0)
(0 0 0)
(0 0 0)
(0 0 0)
(0 0 0)
(0 0 0)
(0 0 0)
(0 0 0)
(0 0 0)
(0 0 0)
(0 0 0)
(0 0 0)
(0 0 0)
(0 0 0)
(0 0 0)
(0 0 0)
(0 0 0)
(0 0 0)
(0 0 0)
(0 0 0)
(0 0 0)
(0 0 0)
(0 0 0)
(0 0 0)
(0 0 0)
(0 0 0)
(0 0 0)
(0 0 0)
(0 0 0)
(0 0 0)
(0 0 0)
(0 0 0)
(0 0 0)
(0 0 0)
(0 0 0)
(0 0 0)
(0 0 0)
(0 0 0)
(0 0 0)
(0 0 0)
(0 0 0)
(0 0 0)
(0 0 0)
(0 0 0)
(0 0 0)
(0 0 0)
(0 0 0)
(0 0 0)
(0 0 0)
(0 0 0)
(0 0 0)
(0 0 0)
(0 0 0)
(0 0 0)
(0 0 0)
(0 0 0)
(0 0 0)
(0 0 0)
(0 0 0)
(0 0 0)
(0 0 0)
(0 0 0)
(0 0 0)
(0 0 0)
(0 0 0)
(0 0 0)
(0 0 0)
(0 0 0)
(0 0 0)
(0 0 0)
(0 0 0)
(0 0 0)
(0 0 0)
(0 0 0)
(0 0 0)
(0 0 0)
(0 0 0)
(0 0 0)
(0 0 0)
(0 0 0)
(0 0 0)
(0 0 0)
(0 0 0)
(0 0 0)
(0 0 0)
(0 0 0)
(0 0 0)
(0 0 0)
(0 0 0)
(0 0 0)
(0 0 0)
(0 0 0)
(0 0 0)
(0 0 0)
(0 0 0)
(0 0 0)
(0 0 0)
(0 0 0)
(0 0 0)
(0 0 0)
(0 0 0)
(0 0 0)
(0 0 0)
(0 0 0)
(0 0 0)
(0 0 0)
(0 0 0)
(0 0 0)
(0 0 0)
(0 0 0)
(0 0 0)
(0 0 0)
(0 0 0)
(0 0 0)
(0 0 0)
(0 0 0)
(0 0 0)
(0 0 0)
(0 0 0)
(0 0 0)
(0 0 0)
(0 0 0)
(0 0 0)
(0 0 0)
(0 0 0)
(0 0 0)
(0 0 0)
(0 0 0)
(0 0 0)
(0 0 0)
(0 0 0)
(0 0 0)
(0 0 0)
(0 0 0)
(0 0 0)
(0 0 0)
(0 0 0)
(0 0 0)
(0 0 0)
(0 0 0)
(0 0 0)
(0 0 0)
(0 0 0)
(0 0 0)
(0 0 0)
(0 0 0)
(0 0 0)
(0 0 0)
(0 0 0)
(0 0 0)
(0 0 0)
(0 0 0)
(0 0 0)
(0 0 0)
(0 0 0)
(0 0 0)
(0 0 0)
(0 0 0)
(0 0 0)
(0 0 0)
(0 0 0)
(0 0 0)
(0 0 0)
(0 0 0)
(0 0 0)
(0 0 0)
(-1.01033333e-20 1.14492634e-08 -1.92076697e-21)
(-2.04150835e-20 2.31339193e-08 -3.88117764e-21)
(-3.13198674e-20 3.54886014e-08 -5.95438807e-21)
(-4.32850403e-20 4.90415296e-08 -8.22928627e-21)
(-5.67734373e-20 6.43160136e-08 -1.07938859e-20)
(-7.22493274e-20 8.18371193e-08 -1.37364588e-20)
(-9.01810973e-20 1.02134688e-07 -1.71460441e-20)
(-1.11040096e-19 1.25742015e-07 -2.11122264e-20)
(-1.35295084e-19 1.53189555e-07 -2.57240784e-20)
(-1.63401796e-19 1.84993102e-07 -3.10681744e-20)
(-1.95787262e-19 2.21636032e-07 -3.72256066e-20)
(-2.32828744e-19 2.63545461e-07 -4.426798e-20)
(-2.74827514e-19 3.11062557e-07 -5.22524251e-20)
(-3.21978149e-19 3.64407787e-07 -6.1215763e-20)
(-3.74334642e-19 4.23642556e-07 -7.11680665e-20)
(-4.31775305e-19 4.88629482e-07 -8.20859972e-20)
(-4.93969182e-19 5.58994379e-07 -9.39064346e-20)
(-5.6034734e-19 6.34093759e-07 -1.06521038e-19)
(-6.30082895e-19 7.12992225e-07 -1.19772477e-19)
(-7.02083791e-19 7.94454288e-07 -1.33453084e-19)
(-7.7500202e-19 8.76954807e-07 -1.47306641e-19)
(-8.4726213e-19 9.58711233e-07 -1.61033819e-19)
(-9.17110349e-19 1.03773921e-06 -1.74301536e-19)
(-9.82683717e-19 1.11193079e-06 -1.86756092e-19)
(-1.04209624e-18 1.17915194e-06 -1.98039533e-19)
(-1.0935369e-18 1.23735344e-06 -2.07808233e-19)
(-1.13537241e-18 1.28468717e-06 -2.15752375e-19)
(-1.1662471e-18 1.31961912e-06 -2.21614867e-19)
(0 0 0)
(-2.04180769e-20 2.31374391e-08 -3.88174573e-21)
(-4.12519627e-20 4.67444147e-08 -7.84258704e-21)
(-6.32845885e-20 7.17057839e-08 -1.20314369e-20)
(-8.74704655e-20 9.91005259e-08 -1.66298303e-20)
(-1.14754898e-19 1.2999756e-07 -2.18175221e-20)
(-1.46086997e-19 1.65470342e-07 -2.77749614e-20)
(-1.82425839e-19 2.06603799e-07 -3.46844594e-20)
(-2.24738696e-19 2.54492309e-07 -4.2729847e-20)
(-2.73990206e-19 3.10227424e-07 -5.2094412e-20)
(-3.31121469e-19 3.74874197e-07 -6.29569172e-20)
(-3.97018263e-19 4.4943521e-07 -7.54855532e-20)
(-4.72468061e-19 5.34801911e-07 -8.9829761e-20)
(-5.58106191e-19 6.31693677e-07 -1.06109993e-19)
(-6.54352452e-19 7.40586075e-07 -1.24405667e-19)
(-7.61340765e-19 8.61631233e-07 -1.44741798e-19)
(-8.78845866e-19 9.94574864e-07 -1.67075087e-19)
(-1.00621259e-18 1.13867623e-06 -1.91280505e-19)
(-1.14229477e-18 1.29263895e-06 -2.17139726e-19)
(-1.28541172e-18 1.45456181e-06 -2.44332923e-19)
(-1.43333099e-18 1.62191915e-06 -2.72435544e-19)
(-1.58328506e-18 1.79157978e-06 -3.00921572e-19)
(-1.7320284e-18 1.95987155e-06 -3.29174422e-19)
(-1.87593781e-18 2.12269489e-06 -3.56506064e-19)
(-2.01115518e-18 2.27568435e-06 -3.82184151e-19)
(-2.1337665e-18 2.41441115e-06 -4.05466005e-19)
(-2.24000617e-18 2.5346144e-06 -4.25637359e-19)
(-2.32647153e-18 2.63244389e-06 -4.42052992e-19)
(-2.39033021e-18 2.70469464e-06 -4.54175979e-19)
(0 0 0)
(-3.13289909e-20 3.54994428e-08 -5.95611868e-21)
(-6.32937977e-20 7.17168427e-08 -1.20331829e-20)
(-9.71136543e-20 1.10030417e-07 -1.84630793e-20)
(-1.34280342e-19 1.52126804e-07 -2.55295091e-20)
(-1.76273096e-19 1.99678882e-07 -3.35137424e-20)
(-2.24580818e-19 2.54370733e-07 -4.26988414e-20)
(-2.80713405e-19 3.17910404e-07 -5.33718047e-20)
(-3.46200495e-19 3.92028476e-07 -6.58233204e-20)
(-4.22575856e-19 4.78460382e-07 -8.0344786e-20)
(-5.11345682e-19 5.78910535e-07 -9.72222689e-20)
(-6.13939423e-19 6.94996681e-07 -1.16727144e-19)
(-7.31642386e-19 8.28173628e-07 -1.3910327e-19)
(-8.655104e-19 9.79636676e-07 -1.64550756e-19)
(-1.01626837e-18 1.1502068e-06 -1.93206678e-19)
(-1.1841965e-18 1.3402019e-06 -2.25123464e-19)
(-1.36901044e-18 1.5493011e-06 -2.60246144e-19)
(-1.56974402e-18 1.77641204e-06 -2.98390118e-19)
(-1.78464593e-18 2.01955392e-06 -3.39221606e-19)
(-2.01110351e-18 2.27577126e-06 -3.82243283e-19)
(-2.24560797e-18 2.54109444e-06 -4.267878e-19)
(-2.48377443e-18 2.8105624e-06 -4.72021741e-19)
(-2.7204278e-18 3.07831982e-06 -5.16962085e-19)
(-2.94976057e-18 3.33779561e-06 -5.60506272e-19)
(-3.16556145e-18 3.58196173e-06 -6.01475688e-19)
(-3.36150572e-18 3.80366162e-06 -6.38670756e-19)
(-3.53148902e-18 3.99598804e-06 -6.70934208e-19)
(-3.66997927e-18 4.15268125e-06 -6.97217683e-19)
(-3.77235623e-18 4.2685132e-06 -7.16645927e-19)
(0 0 0)
(-4.33025015e-20 4.90625383e-08 -8.23259652e-21)
(-8.74931961e-20 9.91282196e-08 -1.66341368e-20)
(-1.34295905e-19 1.521461e-07 -2.55324551e-20)
(-1.85826356e-19 2.10508771e-07 -3.53298855e-20)
(-2.44187899e-19 2.76595259e-07 -4.64263456e-20)
(-3.11506484e-19 3.52810363e-07 -5.92259804e-20)
(-3.89949953e-19 4.41606434e-07 -7.41408159e-20)
(-4.81729247e-19 5.45484732e-07 -9.1590969e-20)
(-5.89078807e-19 6.66973267e-07 -1.120009e-19)
(-7.14213511e-19 8.08578108e-07 -1.35791199e-19)
(-8.59259813e-19 9.72705481e-07 -1.63365467e-19)
(-1.02615951e-18 1.16155291e-06 -1.95091994e-19)
(-1.21654601e-18 1.37696925e-06 -2.31280218e-19)
(-1.43159518e-18 1.6202858e-06 -2.72152361e-19)
(-1.67185559e-18 1.89212431e-06 -3.17811184e-19)
(-1.93706691e-18 2.19219135e-06 -3.68205517e-19)
(-2.22597892e-18 2.51907347e-06 -4.23095964e-19)
(-2.53618795e-18 2.87005204e-06 -4.8202397e-19)
(-2.86401077e-18 3.24096054e-06 -5.44288079e-19)
(-3.20441824e-18 3.62610934e-06 -6.08931576e-19)
(-3.55105033e-18 4.01830272e-06 -6.74745646e-19)
(-3.89633107e-18 4.40896888e-06 -7.40291471e-19)
(-4.23169434e-18 4.78841546e-06 -8.03943338e-19)
(-4.54792105e-18 5.14621108e-06 -8.63952778e-19)
(-4.83557483e-18 5.47167832e-06 -9.18531217e-19)
(-5.08550883e-18 5.75446723e-06 -9.65945955e-19)
(-5.28940377e-18 5.98516426e-06 -1.00462189e-18)
(-5.44028879e-18 6.15588155e-06 -1.03323982e-18)
(0 0 0)
(-5.68009732e-20 6.43495621e-08 -1.07991029e-20)
(-1.14794563e-19 1.30046566e-07 -2.18250319e-20)
(-1.76309266e-19 1.99724409e-07 -3.35205843e-20)
(-2.44210103e-19 2.76623711e-07 -4.6430542e-20)
(-3.2135594e-19 3.63978458e-07 -6.1098429e-20)
(-4.10652534e-19 4.65075741e-07 -7.80765838e-20)
(-5.15084085e-19 5.83291405e-07 -9.79321306e-20)
(-6.37719948e-19 7.22097668e-07 -1.2124822e-19)
(-7.81692531e-19 8.85038183e-07 -1.48619787e-19)
(-9.50142347e-19 1.07566595e-06 -1.80643051e-19)
(-1.14612641e-18 1.29743977e-06 -2.17898047e-19)
(-1.372487e-18 1.55357578e-06 -2.60923619e-19)
(-1.63167951e-18 1.84685277e-06 -3.10184655e-19)
(-1.92556124e-18 2.17937311e-06 -3.66031903e-19)
(-2.25514679e-18 2.552286e-06 -4.28655501e-19)
(-2.62034137e-18 2.96548556e-06 -4.9803437e-19)
(-3.01966923e-18 3.4173035e-06 -5.73884775e-19)
(-3.45002111e-18 3.90422318e-06 -6.55612598e-19)
(-3.90645021e-18 4.42064867e-06 -7.42274977e-19)
(-4.38205048e-18 4.95876697e-06 -8.32557672e-19)
(-4.86795159e-18 5.50854217e-06 -9.24774662e-19)
(-5.35346055e-18 6.05787574e-06 -1.0168956e-18)
(-5.82637037e-18 6.59295574e-06 -1.10660488e-18)
(-6.27343979e-18 7.09879966e-06 -1.19139291e-18)
(-6.68102751e-18 7.55997211e-06 -1.26867647e-18)
(-7.03584134e-18 7.9614326e-06 -1.33594036e-18)
(-7.32574168e-18 8.28944469e-06 -1.39088914e-18)
(-7.54052374e-18 8.53246115e-06 -1.43159439e-18)
(0 0 0)
(-7.22885621e-20 8.18854715e-08 -1.37438883e-20)
(-1.46147016e-19 1.65545382e-07 -2.77863184e-20)
(-2.24642916e-19 2.54449799e-07 -4.27105812e-20)
(-3.11558014e-19 3.52877053e-07 -5.92357144e-20)
(-4.10683504e-19 4.65116286e-07 -7.80824308e-20)
(-5.25898658e-19 5.95556086e-07 -9.99880393e-20)
(-6.61220864e-19 7.48741078e-07 -1.25715911e-19)
(-8.20822633e-19 9.29391233e-07 -1.5605865e-19)
(-1.00900961e-18 1.14237714e-06 -1.91833833e-19)
(-1.23015375e-18 1.39264458e-06 -2.33871211e-19)
(-1.48857562e-18 1.6850815e-06 -2.82990229e-19)
(-1.7883704e-18 2.02432131e-06 -3.39966836e-19)
(-2.13317422e-18 2.41447851e-06 -4.0548896e-19)
(-2.52587123e-18 2.8588173e-06 -4.80100769e-19)
(-2.96824761e-18 3.35936005e-06 -5.64136915e-19)
(-3.46060634e-18 3.91645121e-06 -6.57649432e-19)
(-4.00136549e-18 4.52830269e-06 -7.60331679e-19)
(-4.58667322e-18 5.19055802e-06 -8.71445672e-19)
(-5.21008221e-18 5.89592385e-06 -9.89760942e-19)
(-5.86233414e-18 6.63392587e-06 -1.11351451e-18)
(-6.53130741e-18 7.39084962e-06 -1.24040205e-18)
(-7.20217755e-18 8.14992195e-06 -1.36760944e-18)
(-7.85782605e-18 8.89177355e-06 -1.49189126e-18)
(-8.47950999e-18 9.59519674e-06 -1.60969845e-18)
(-9.04777309e-18 1.02381763e-05 -1.71735106e-18)
(-9.54354191e-18 1.07991302e-05 -1.81124536e-18)
(-9.94931636e-18 1.12582561e-05 -1.88807807e-18)
(-1.02503377e-17 1.1598854e-05 -1.94506573e-18)
(0 0 0)
(-9.02337008e-20 1.02200137e-07 -1.71560005e-20)
(-1.82510477e-19 2.06710511e-07 -3.47004683e-20)
(-2.80808833e-19 3.18032609e-07 -5.33898405e-20)
(-3.90041044e-19 4.41724601e-07 -7.4158021e-20)
(-5.15158573e-19 5.83388802e-07 -9.79461945e-20)
(-6.61266235e-19 7.4880049e-07 -1.25724477e-19)
(-8.33699594e-19 9.43995471e-07 -1.58506548e-19)
(-1.03805974e-18 1.17530958e-06 -1.97356151e-19)
(-1.28019583e-18 1.44935918e-06 -2.4338363e-19)
(-1.56612758e-18 1.77295372e-06 -2.97731027e-19)
(-1.9018986e-18 2.15293009e-06 -3.61543991e-19)
(-2.29335084e-18 2.59589764e-06 -4.35928689e-19)
(-2.74581307e-18 3.10788576e-06 -5.21892376e-19)
(-3.26370086e-18 3.69389137e-06 -6.20267211e-19)
(-3.85003351e-18 4.35733217e-06 -7.31618392e-19)
(-4.50588361e-18 5.09942372e-06 -8.56139721e-19)
(-5.22978886e-18 5.91851363e-06 -9.93542275e-19)
(-6.01717074e-18 6.80942363e-06 -1.14294479e-18)
(-6.859821e-18 7.76286821e-06 -1.3027774e-18)
(-7.74553063e-18 8.76503469e-06 -1.47071287e-18)
(-8.65794389e-18 9.79741788e-06 -1.64364097e-18)
(-9.57671702e-18 1.08369996e-05 -1.81770074e-18)
(-1.04780442e-17 1.18568439e-05 -1.98838222e-18)
(-1.133558e-17 1.28271406e-05 -2.1507026e-18)
(-1.21217386e-17 1.37166759e-05 -2.29945261e-18)
(-1.28092915e-17 1.44946398e-05 -2.42949796e-18)
(-1.33731289e-17 1.51326195e-05 -2.53611011e-18)
(-1.37920029e-17 1.56065723e-05 -2.61529252e-18)
(0 0 0)
(-1.11107314e-19 1.25826314e-07 -2.11249439e-20)
(-2.24853719e-19 2.54637911e-07 -4.2751599e-20)
(-3.4634116e-19 3.92208358e-07 -6.58499083e-20)
(-4.81876858e-19 5.45675027e-07 -9.16188591e-20)
(-6.3785883e-19 7.22277428e-07 -1.21274457e-19)
(-8.20936857e-19 9.29538973e-07 -1.5608023e-19)
(-1.03812959e-18 1.17539951e-06 -1.9736935e-19)
(-1.29688946e-18 1.46828903e-06 -2.46556785e-19)
(-1.60509637e-18 1.81712084e-06 -3.05137841e-19)
(-1.97097267e-18 2.23119586e-06 -3.74671696e-19)
(-2.40290658e-18 2.72000313e-06 -4.56747451e-19)
(-2.90916618e-18 3.29289657e-06 -5.52929348e-19)
(-3.49749111e-18 3.95863312e-06 -6.64678741e-19)
(-4.17455369e-18 4.72476306e-06 -7.93251319e-19)
(-4.94529192e-18 5.59687522e-06 -9.39570184e-19)
(-5.81213111e-18 6.577716e-06 -1.1040781e-18)
(-6.77413026e-18 7.6662232e-06 -1.28657596e-18)
(-7.82611212e-18 8.85654143e-06 -1.48605899e-18)
(-8.95786203e-18 1.01371153e-05 -1.70056678e-18)
(-1.01535048e-17 1.14899839e-05 -1.92706816e-18)
(-1.13911859e-17 1.28904203e-05 -2.16140461e-18)
(-1.26431846e-17 1.43070595e-05 -2.39831603e-18)
(-1.3876568e-17 1.57026377e-05 -2.63156865e-18)
(-1.5054445e-17 1.70354124e-05 -2.85419548e-18)
(-1.61378094e-17 1.82612472e-05 -3.05884594e-18)
(-1.70878655e-17 1.93362438e-05 -3.2382238e-18)
(-1.78686346e-17 2.02196911e-05 -3.38557507e-18)
(-1.84495644e-17 2.0877018e-05 -3.49517378e-18)
(0 0 0)
(-1.35375119e-19 1.53290925e-07 -2.57392132e-20)
(-2.74142868e-19 3.10420647e-07 -5.2123282e-20)
(-4.22782099e-19 4.78721779e-07 -8.03837868e-20)
(-5.89311958e-19 6.67269687e-07 -1.12044983e-19)
(-7.81931892e-19 8.85342685e-07 -1.48665045e-19)
(-1.00923384e-18 1.14266175e-06 -1.91876234e-19)
(-1.28037659e-18 1.44958794e-06 -2.43417817e-19)
(-1.60520478e-18 1.81725733e-06 -3.0515835e-19)
(-1.99426013e-18 2.25759427e-06 -3.79097386e-19)
(-2.45869544e-18 2.7832146e-06 -4.67348573e-19)
(-3.010072e-18 3.40719692e-06 -5.72100455e-19)
(-3.66000558e-18 4.14268248e-06 -6.95548404e-19)
(-4.4196411e-18 5.00228091e-06 -8.39793937e-19)
(-5.29893658e-18 5.99726017e-06 -1.00670789e-18)
(-6.30575315e-18 7.13651665e-06 -1.19775699e-18)
(-7.44476525e-18 8.42534185e-06 -1.41379687e-18)
(-8.71623373e-18 9.86403371e-06 -1.65483994e-18)
(-1.01147163e-17 1.14464371e-05 -1.91981274e-18)
(-1.1627831e-17 1.31585445e-05 -2.20632508e-18)
(-1.32352309e-17 1.49773354e-05 -2.5104812e-18)
(-1.49079813e-17 1.68700712e-05 -2.82676895e-18)
(-1.66085422e-17 1.8794276e-05 -3.148065e-18)
(-1.82915404e-17 2.06986101e-05 -3.46578919e-18)
(-1.99054506e-17 2.2524772e-05 -3.7702288e-18)
(-2.13951946e-17 2.42104398e-05 -4.0510324e-18)
(-2.27055232e-17 2.56930979e-05 -4.29784531e-18)
(-2.37848806e-17 2.691441e-05 -4.50102984e-18)
(-2.4589322e-17 2.7824651e-05 -4.65238978e-18)
(0 0 0)
(-1.6347979e-19 1.8509487e-07 -3.10828999e-20)
(-3.31318537e-19 3.75123015e-07 -6.29941887e-20)
(-5.11654603e-19 5.79295955e-07 -9.72807313e-20)
(-7.14580843e-19 8.09036483e-07 -1.35860716e-19)
(-9.50543407e-19 1.07616559e-06 -1.80718958e-19)
(-1.23056191e-18 1.39315124e-06 -2.33948477e-19)
(-1.56649138e-18 1.7734049e-06 -2.97799897e-19)
(-1.97125514e-18 2.23154558e-06 -3.74725171e-19)
(-2.45886423e-18 2.78342238e-06 -4.67380534e-19)
(-3.04434153e-18 3.4460293e-06 -5.78611093e-19)
(-3.74351139e-18 4.23726792e-06 -7.11409637e-19)
(-4.57257132e-18 5.17546315e-06 -8.68833765e-19)
(-5.54743168e-18 6.27861644e-06 -1.0538788e-18)
(-6.68277813e-18 7.56334488e-06 -1.26929807e-18)
(-7.99084603e-18 9.04349435e-06 -1.51736881e-18)
(-9.4799114e-18 1.07284316e-05 -1.7996052e-18)
(-1.11525466e-17 1.262107e-05 -2.11642817e-18)
(-1.30037282e-17 1.47157284e-05 -2.46680979e-18)
(-1.50189504e-17 1.69959955e-05 -2.84792165e-18)
(-1.71725667e-17 1.94328542e-05 -3.25483078e-18)
(-1.94266494e-17 2.19833899e-05 -3.68029713e-18)
(-2.17306844e-17 2.45904459e-05 -4.11473219e-18)
(-2.40224094e-17 2.71835721e-05 -4.54637428e-18)
(-2.62300222e-17 2.96815237e-05 -4.96171929e-18)
(-2.82758219e-17 3.19963816e-05 -5.3462143e-18)
(-3.008112e-17 3.40391095e-05 -5.6851786e-18)
(-3.15719832e-17 3.57260513e-05 -5.964868e-18)
(-3.26851364e-17 3.69856109e-05 -6.17355739e-18)
(0 0 0)
(-1.95777205e-19 2.2164087e-07 -3.72235687e-20)
(-3.97259457e-19 4.49739392e-07 -7.55311702e-20)
(-6.1442912e-19 6.95594717e-07 -1.16819913e-19)
(-8.59837264e-19 9.7341214e-07 -1.63474849e-19)
(-1.1467868e-18 1.29824568e-06 -2.18023153e-19)
(-1.48930359e-18 1.68596496e-06 -2.83128172e-19)
(-1.90257112e-18 2.15374734e-06 -3.61671416e-19)
(-2.40347519e-18 2.72069481e-06 -4.56855172e-19)
(-3.01051769e-18 3.40773722e-06 -5.72184891e-19)
(-3.74377944e-18 4.23759096e-06 -7.11460421e-19)
(-4.62476594e-18 5.2345852e-06 -8.78744548e-19)
(-5.675886e-18 6.42407251e-06 -1.07826126e-18)
(-6.9196539e-18 7.83152636e-06 -1.31424111e-18)
(-8.37747748e-18 9.48116983e-06 -1.59068778e-18)
(-1.00680344e-17 1.1394138e-05 -1.91106691e-18)
(-1.20052049e-17 1.35861387e-05 -2.27791199e-18)
(-1.41956252e-17 1.60646831e-05 -2.69236088e-18)
(-1.66359443e-17 1.88259814e-05 -3.15364027e-18)
(-1.93099759e-17 2.18517202e-05 -3.65853633e-18)
(-2.21860623e-17 2.51060792e-05 -4.20091312e-18)
(-2.52150715e-17 2.85334653e-05 -4.77135872e-18)
(-2.83295266e-17 3.20575276e-05 -5.3570522e-18)
(-3.14443733e-17 3.55820265e-05 -5.94194239e-18)
(-3.44597976e-17 3.89940224e-05 -6.50730856e-18)
(-3.7266281e-17 4.21695959e-05 -7.03272831e-18)
(-3.97517159e-17 4.4981899e-05 -7.49741005e-18)
(-4.1809959e-17 4.73108324e-05 -7.88176713e-18)
(-4.33497687e-17 4.90531582e-05 -8.16903894e-18)
(0 0 0)
(-2.32862108e-19 2.63602196e-07 -4.42741761e-20)
(-4.72802393e-19 5.35216933e-07 -8.9893044e-20)
(-7.32188457e-19 8.28843471e-07 -1.39206696e-19)
(-1.02684618e-18 1.16239369e-06 -1.95222054e-19)
(-1.37354032e-18 1.55483938e-06 -2.61123309e-19)
(-1.78968584e-18 2.02588496e-06 -3.40216315e-19)
(-2.29454174e-18 2.59731905e-06 -4.36154491e-19)
(-2.91020044e-18 3.29413464e-06 -5.53125392e-19)
(-3.66092384e-18 4.14377851e-06 -6.95722444e-19)
(-4.57329112e-18 5.17631943e-06 -8.68970169e-19)
(-5.67632907e-18 6.42459648e-06 -1.07834521e-18)
(-7.00076918e-18 7.92337895e-06 -1.32963043e-18)
(-8.57818725e-18 9.70839313e-06 -1.62874575e-18)
(-1.04394328e-17 1.1814545e-05 -1.98144367e-18)
(-1.26125334e-17 1.42735485e-05 -2.3929053e-18)
(-1.51198825e-17 1.71107433e-05 -2.8672023e-18)
(-1.79748718e-17 2.0341283e-05 -3.40665744e-18)
(-2.11779669e-17 2.39656946e-05 -4.01110694e-18)
(-2.47124594e-17 2.79650717e-05 -4.67711244e-18)
(-2.85403366e-17 3.22964012e-05 -5.39720977e-18)
(-3.25988775e-17 3.6888712e-05 -6.15931149e-18)
(-3.67987406e-17 4.16409122e-05 -6.94640606e-18)
(-4.10243628e-17 4.64222415e-05 -7.73670091e-18)
(-4.51374033e-17 5.10761692e-05 -8.50433296e-18)
(-4.89836648e-17 5.54282248e-05 -9.22070734e-18)
(-5.24033706e-17 5.92976271e-05 -9.85642032e-18)
(-5.52439275e-17 6.25117242e-05 -1.03835891e-17)
(-5.73735318e-17 6.49213874e-05 -1.07782845e-17)
(0 0 0)
(-2.74990729e-19 3.11269009e-07 -5.22832905e-20)
(-5.58494568e-19 6.32175248e-07 -1.06183513e-19)
(-8.66051344e-19 9.8030866e-07 -1.64653148e-19)
(-1.21739397e-18 1.37800303e-06 -2.31440858e-19)
(-1.63308013e-18 1.8485224e-06 -3.10450262e-19)
(-2.13474712e-18 2.416349e-06 -4.05787263e-19)
(-2.74730498e-18 3.1096657e-06 -5.22175228e-19)
(-3.49923651e-18 3.9606961e-06 -6.65009685e-19)
(-4.42139477e-18 5.00434447e-06 -8.4012643e-19)
(-5.54892951e-18 6.28037686e-06 -1.05416268e-18)
(-6.92087073e-18 7.83295071e-06 -1.31447166e-18)
(-8.5788967e-18 9.70922128e-06 -1.6288801e-18)
(-1.05669178e-17 1.1958871e-05 -2.00559889e-18)
(-1.29288602e-17 1.46316012e-05 -2.45279031e-18)
(-1.57061467e-17 1.77742813e-05 -2.97807755e-18)
(-1.89338158e-17 2.1426557e-05 -3.58779815e-18)
(-2.26360424e-17 2.56157802e-05 -4.28614967e-18)
(-2.682061e-17 3.03507547e-05 -5.07414907e-18)
(-3.14726421e-17 3.56146429e-05 -5.94847113e-18)
(-3.65482307e-17 4.13577573e-05 -6.90029475e-18)
(-4.19687972e-17 4.74911806e-05 -7.91432072e-18)
(-4.7617348e-17 5.38825313e-05 -8.9681797e-18)
(-5.33379246e-17 6.03553429e-05 -1.00324635e-17)
(-5.89395152e-17 6.66934906e-05 -1.10715913e-17)
(-6.42053418e-17 7.26517008e-05 -1.20456399e-17)
(-6.89076201e-17 7.79722501e-05 -1.29131098e-17)
(-7.28266358e-17 8.24065488e-05 -1.36343737e-17)
(-7.57715877e-17 8.5738722e-05 -1.41753354e-17)
(0 0 0)
(-3.22142222e-19 3.64617793e-07 -6.12467731e-20)
(-6.5470573e-19 7.41033046e-07 -1.24472477e-19)
(-1.01684167e-18 1.15092309e-06 -1.93315166e-19)
(-1.43252809e-18 1.62142601e-06 -2.72329081e-19)
(-1.92689594e-18 2.18098105e-06 -3.66284898e-19)
(-2.52730852e-18 2.86054986e-06 -4.80373192e-19)
(-3.26542438e-18 3.6959515e-06 -6.20593922e-19)
(-4.1766793e-18 4.72727682e-06 -7.93654346e-19)
(-5.301235e-18 5.99996296e-06 -1.00714357e-18)
(-6.68557542e-18 7.56660055e-06 -1.26982819e-18)
(-8.38013253e-18 9.484248e-06 -1.59119077e-18)
(-1.04413476e-17 1.18167645e-05 -1.9818061e-18)
(-1.29299773e-17 1.46328931e-05 -2.45300154e-18)
(-1.59076767e-17 1.80023942e-05 -3.016186e-18)
(-1.94349139e-17 2.19936843e-05 -3.68242985e-18)
(-2.35650495e-17 2.66671368e-05 -4.46131963e-18)
(-2.83389221e-17 3.20689534e-05 -5.35991611e-18)
(-3.37771521e-17 3.82224569e-05 -6.38129983e-18)
(-3.98709618e-17 4.51177041e-05 -7.52286939e-18)
(-4.65725233e-17 5.27005656e-05 -8.77460068e-18)
(-5.37858111e-17 6.0862379e-05 -1.01174669e-17)
(-6.13597608e-17 6.94322102e-05 -1.15223628e-17)
(-6.90857028e-17 7.81739529e-05 -1.29498878e-17)
(-7.67012078e-17 8.67906808e-05 -1.43513421e-17)
(-8.39021659e-17 9.49383157e-05 -1.56711922e-17)
(-9.03637838e-17 0.000102249383 -1.68510283e-17)
(-9.5769124e-17 0.000108365302 -1.78346708e-17)
(-9.98412642e-17 0.000112972766 -1.85736827e-17)
(0 0 0)
(-3.7448531e-19 4.2383974e-07 -7.11965113e-20)
(-7.6165731e-19 8.62041326e-07 -1.44801592e-19)
(-1.18470979e-18 1.34085739e-06 -2.25220494e-19)
(-1.67262392e-18 1.89308797e-06 -3.17956556e-19)
(-2.25620349e-18 2.55359177e-06 -4.28855574e-19)
(-2.96959168e-18 3.36100239e-06 -5.64391506e-19)
(-3.85186437e-18 4.3595319e-06 -7.31965375e-19)
(-4.94742921e-18 5.599423e-06 -9.39975289e-19)
(-6.30852506e-18 7.13977846e-06 -1.19828234e-18)
(-7.99431696e-18 9.04753769e-06 -1.5180266e-18)
(-1.0071561e-17 1.13982297e-05 -1.91173467e-18)
(-1.2616501e-17 1.42781196e-05 -2.39365571e-18)
(-1.57092223e-17 1.77778193e-05 -2.97865866e-18)
(-1.94361659e-17 2.19951312e-05 -3.68266562e-18)
(-2.38852397e-17 2.7029516e-05 -4.52167951e-18)
(-2.91353549e-17 3.29702509e-05 -5.509754e-18)
(-3.52524275e-17 3.98919047e-05 -6.65819512e-18)
(-4.22783994e-17 4.78419155e-05 -7.97347188e-18)
(-5.02177857e-17 5.68253707e-05 -9.45471441e-18)
(-5.9023457e-17 6.6788923e-05 -1.1091158e-17)
(-6.85820301e-17 7.76042641e-05 -1.2859639e-17)
(-7.87019873e-17 8.90546871e-05 -1.47227497e-17)
(-8.91072429e-17 0.000100827811 -1.66281475e-17)
(-9.94396331e-17 0.000112518398 -1.85095916e-17)
(-1.0927383e-16 0.000123645233 -2.02901969e-17)
(-1.1814675e-16 0.000133684387 -2.18880615e-17)
(-1.25600209e-16 0.000142117483 -2.32238191e-17)
(-1.31230962e-16 0.000148488302 -2.42289627e-17)
(0 0 0)
(-4.31908076e-19 4.88808502e-07 -8.21110252e-20)
(-8.79121709e-19 9.94943104e-07 -1.67127114e-19)
(-1.36945238e-18 1.5498823e-06 -2.60329568e-19)
(-1.93771148e-18 2.1930239e-06 -3.68327307e-19)
(-2.62122741e-18 2.96660986e-06 -4.9820193e-19)
(-3.4617831e-18 3.91791881e-06 -6.57872128e-19)
(-4.50745645e-18 5.10134912e-06 -8.56437565e-19)
(-5.81420066e-18 6.58020779e-06 -1.10447015e-18)
(-7.44769572e-18 8.42880652e-06 -1.41435216e-18)
(-9.48324891e-18 1.07323497e-05 -1.80023751e-18)
(-1.20093348e-17 1.35909408e-05 -2.27869369e-18)
(-1.51245728e-17 1.71161615e-05 -2.86808948e-18)
(-1.89373244e-17 2.14306154e-05 -3.58845999e-18)
(-2.35679392e-17 2.66704683e-05 -4.46186177e-18)
(-2.91382553e-17 3.29735648e-05 -5.51029716e-18)
(-3.57633193e-17 4.04700593e-05 -6.75404912e-18)
(-4.35462881e-17 4.92766462e-05 -8.21062346e-18)
(-5.25633099e-17 5.94794533e-05 -9.89183774e-18)
(-6.28435783e-17 7.11114781e-05 -1.18000849e-17)
(-7.43497114e-17 8.41303912e-05 -1.39248142e-17)
(-8.69543555e-17 9.83920721e-05 -1.62385384e-17)
(-1.00420578e-16 0.00011362843 -1.86938454e-17)
(-1.14388501e-16 0.000129432285 -2.12218807e-17)
(-1.28373709e-16 0.00014525557 -2.37332225e-17)
(-1.41783966e-16 0.000160428238 -2.61220572e-17)
(-1.53959324e-16 0.000174203646 -2.82741126e-17)
(-1.64235618e-16 0.000185830377 -3.00778124e-17)
(-1.72023014e-16 0.000194641117 -3.14368683e-17)
(0 0 0)
(-4.94083626e-19 5.59154482e-07 -9.39279663e-20)
(-1.00644907e-18 1.13900362e-06 -1.91325024e-19)
(-1.57012049e-18 1.77692493e-06 -2.9846106e-19)
(-2.22652466e-18 2.51980229e-06 -4.23198915e-19)
(-3.02042344e-18 3.41828941e-06 -5.74027208e-19)