/*--------------------------------*- C++ -*----------------------------------*\
| =========                 |                                                 |
| \\      /  F ield         | foam-extend: Open Source CFD                    |
|  \\    /   O peration     | Version:     4.1                                |
|   \\  /    A nd           | Web:         http://www.foam-extend.org         |
|    \\/     M anipulation  |                                                 |
\*---------------------------------------------------------------------------*/
FoamFile
{
    version     2.0;
    format      ascii;
    class       volScalarField;
    location    "0.05";
    object      rAU;
}
// * * * * * * * * * * * * * * * * * * * * * * * * * * * * * * * * * * * * * //

dimensions      [0 0 1 0 0 0 0];

internalField   nonuniform List<scalar> 
35840
(
0.000714285725
0.000836581529
0.000924296617
0.000999134233
0.00105339581
0.00109039408
0.00111577662
0.00113355867
0.00114612308
0.00115506088
0.00116146097
0.00116603589
0.00116926704
0.00117142852
0.00117269886
0.00117353202
0.00117404393
0.00117432294
0.00117443677
0.00117443726
0.00117436416
0.00117424797
0.00117411204
0.00117397425
0.00117384839
0.00117372244
0.00117362957
0.00117357272
0.000739106506
0.000819553812
0.000880837634
0.000950926917
0.00101598534
0.00107002344
0.00111247536
0.00114524165
0.0011702702
0.00118914993
0.00120320894
0.00121351406
0.00122091327
0.00122601322
0.00122868161
0.0012303892
0.00123149996
0.00123217643
0.00123254089
0.00123268622
0.00123268352
0.00123258765
0.00123244128
0.00123227796
0.00123212434
0.00123200162
0.00123191451
0.00123185177
0.000753182922
0.000833367938
0.00087833592
0.000928909272
0.000977620009
0.00102076842
0.00105696133
0.00108662124
0.0011106186
0.00112973056
0.00114466538
0.00115607833
0.00116457834
0.00117073332
0.0011738631
0.00117570873
0.00117699565
0.0011778616
0.00117841345
0.00117873495
0.00117889251
0.00117893934
0.00117891852
0.00117886536
0.00117880904
0.00117877357
0.00117877823
0.00117881671
0.000760298024
0.000850126359
0.000895598458
0.000941011977
0.000981620465
0.00101623433
0.00104498159
0.00106877384
0.00108849802
0.00110474363
0.00111792493
0.00112838978
0.00113648173
0.00114256245
0.00114607955
0.0011476889
0.00114887731
0.00114973214
0.0011503255
0.00115071805
0.00115096111
0.0011510984
0.00115116772
0.00115120195
0.00115122966
0.00115127523
0.00115135865
0.00115149242
0.000763365694
0.000860200475
0.000909811027
0.000956346403
0.000995294889
0.00102629429
0.00105059092
0.00106993747
0.00108570806
0.00109873058
0.00110947332
0.00111821783
0.0011251826
0.00113058856
0.00113437426
0.00113582193
0.00113663105
0.00113723396
0.00113766715
0.00113796447
0.00113815772
0.00113827674
0.0011383499
0.00113840424
0.00113846499
0.0011385547
0.00113869231
0.00113889182
0.000765058248
0.000866253931
0.000919434333
0.000968175628
0.00100776359
0.00103793862
0.00106034904
0.00107723616
0.00109039154
0.00110095591
0.00110959149
0.00111666172
0.00112238409
0.00112692843
0.00113045361
0.00113237648
0.00113264162
0.00113282665
0.00113294405
0.00113300626
0.00113302753
0.00113302402
0.00113301395
0.00113301733
0.00113305475
0.00113314573
0.00113330707
0.00113354397
0.000766109266
0.000870102641
0.00092591774
0.000976650834
0.00101733893
0.00104768438
0.00106946148
0.00108514266
0.00109676943
0.00110571232
0.0011128149
0.00111855638
0.00112320717
0.0011269413
0.00112989022
0.00113210276
0.00113225761
0.00113196984
0.00113170165
0.00113145357
0.00113122828
0.00113103219
0.00113087592
0.00113077384
0.00113074264
0.00113079397
0.00113094561
0.00113121203
0.000766808459
0.000872698854
0.000930451698
0.000982819988
0.00102458343
0.00105537213
0.00107701388
0.00109211027
0.00110285272
0.00111075986
0.00111680577
0.0011215677
0.00112537606
0.00112842999
0.00113085896
0.00113275327
0.001133143
0.00113238627
0.00113172254
0.00113114516
0.00113064518
0.00113022096
0.00112987918
0.00112963291
0.00112949837
0.00112949191
0.00112962747
0.00112991464
0.000767305334
0.000874547632
0.000933747619
0.000987433275
0.00103015602
0.00106145669
0.00108318206
0.00109801409
0.0011082422
0.00111548395
0.00112080461
0.00112485553
0.00112801896
0.00113052296
0.00113250604
0.00113404055
0.00113424202
0.00113308928
0.00113207132
0.00113117668
0.00113039705
0.00112973181
0.0011291889
0.00112878244
0.00112852965
0.00112844788
0.00112855186
0.00112885122
0.000767675986
0.000875921262
0.000936223749
0.000990970829
0.00103453095
0.00106635287
0.00108827816
0.00110303636
0.0011129822
0.00111980215
0.00112462708
0.0011281643
0.00113083835
0.00113290443
0.00113451398
0.00113571008
0.00113528868
0.00113379462
0.00113244952
0.00113124729
0.00113018459
0.00112926597
0.00112850395
0.00112791669
0.00112752536
0.00112735106
0.00112741165
0.00112771868
0.000767962656
0.000876977669
0.000938139111
0.000993748271
0.00103803416
0.00107036117
0.00109255141
0.00110735881
0.00111717996
0.00112374921
0.00112824541
0.00113141864
0.00113372769
0.00113545177
0.00113675603
0.00113761758
0.00113615993
0.00113436797
0.00113272164
0.00113122248
0.00112987538
0.00112869282
0.00112769455
0.00112690586
0.00112635518
0.00112607069
0.00112607649
0.00112638859
0.00076819085
0.000877813557
0.000939658881
0.000995976143
0.00104089042
0.00107369401
0.00109618302
0.00111112021
0.00112092717
0.00112737068
0.00113166453
0.00113459167
0.00113663848
0.00113810483
0.00113916895
0.00113900056
0.00113683135
0.00113477404
0.00113284471
0.00113105412
0.0011294171
0.00112795563
0.00112669902
0.0011256829
0.00112494671
0.00112452985
0.00112446669
0.00112478112
0.000768376659
0.000878490335
0.000940891002
0.000997797367
0.00104325753
0.00107650434
0.0010993062
0.001114425
0.00112429557
0.00113070596
0.00113489522
0.00113767135
0.00113954287
0.00114082707
0.0011414001
0.00113969687
0.00113731978
0.0011350176
0.00113281415
0.00113072985
0.00112878954
0.00112702558
0.00112547912
0.00112419955
0.00112324182
0.00112266165
0.00112250903
0.0011228206
0.0007685306
0.000879048374
0.000941907893
0.000999310747
0.00104524787
0.00107890393
0.00110202054
0.00111735308
0.00112734189
0.00113378837
0.00113794957
0.00114065259
0.00114242361
0.0011435946
0.00114267555
0.00114022553
0.00113765997
0.00113512308
0.00113264566
0.00113025645
0.00112798932
0.00112588757
0.00112400637
0.00112241269
0.00112118232
0.00112039401
0.00112012073
0.00112041879
0.000768659781
0.000879514986
0.000942759231
0.0010005856
0.00104694227
0.00108097511
0.00110440111
0.00111996621
0.00113011136
0.00113664588
0.00114083958
0.00114353419
0.00114527006
0.00114535446
0.00114320152
0.00114064067
0.00113789731
0.00113512854
0.00113236979
0.00112965528
0.00112702626
0.0011245371
0.00112225898
0.00112028057
0.00111870509
0.00111764317
0.00111720114
0.00111746537
0.000768769127
0.000879909099
0.000943479739
0.00100167116
0.00104839931
0.00108277874
0.00110650447
0.00112231186
0.00113263954
0.00113930115
0.00114357568
0.00114631622
0.00114732504
0.00114596213
0.00114366167
0.00114100121
0.00113808655
0.00113508464
0.00113203132
0.00112896253
0.00112592451
0.00112298187
0.00112022315
0.00111776306
0.00111574028
0.00111430917
0.0011136244
0.00111381826
0.000768862127
0.00088024408
0.000944094069
0.0010026028
0.00104966165
0.00108435978
0.00110837296
0.00112442588
0.00113495331
0.00114177109
0.00114616502
0.00114847623
0.00114820393
0.00114645537
0.00114412114
0.00114137155
0.00113829255
0.00113505538
0.00113169102
0.00112823238
0.00112472675
0.00112124646
0.00111789743
0.0011148245
0.00111221128
0.00111027175
0.00110923071
0.00110929113
0.000768941292
0.000880529522
0.00094461995
0.00100340611
0.00105076048
0.0010857514
0.00111003785
0.00112633445
0.00113707168
0.00114406649
0.00114825956
0.00114949879
0.00114871245
0.00114699779
0.00114464655
0.00114182263
0.00113859085
0.00113511961
0.00113142881
0.00112754185
0.00112350066
0.00111937995
0.00111530051
0.00111143987
0.00110803707
0.00110538655
0.00110381515
0.00110363572
0.000769008472
0.000880772411
0.00094507025
0.00100409975
0.00105171858
0.0010869777
0.00111152158
0.00112805576
0.00113900667
0.00114595979
0.00114930978
0.00115000424
0.00114930949
0.00114765019
0.00114530627
0.00114243196
0.00113906827
0.00113537314
0.00113134788
0.00112699742
0.00112234827
0.0011174677
0.00111248403
0.00110760628
0.00110313878
0.00109948272
0.00109711334
0.00109651658
0.000769065061
0.000880977928
0.000945454377
0.00100469719
0.00105255222
0.00108805567
0.00111283945
0.00112960121
0.00114060547
0.00114694286
0.00114979381
0.0011506228
0.00115004417
0.00114847086
0.0011461697
0.0011432826
0.00113982294
0.0011359307
0.00113157941
0.00112674338
0.00112141872
0.00111564853
0.00110955303
0.00110336343
0.00109745452
0.00109236444
0.00108878327
0.00108747278
0.000769112144
0.000881150022
0.000945779325
0.00100520816
0.00105327284
0.00108899681
0.00111400105
0.00113085573
0.00114145218
0.00114738808
0.00115039947
0.00115138836
0.00115095922
0.00114951367
0.00114730502
0.00114446081
0.00114096312
0.00113692669
0.00113228665
0.00112697106
0.00112092434
0.00111413874
0.0011066972
0.00109882825
0.00109096917
0.00108382325
0.00107838568
0.00107585973
0.000769150602
0.000881291824
0.00094605045
0.00100563986
0.00105388848
0.00108980859
0.00111490225
0.00113152312
0.00114184349
0.00114794899
0.00115114468
0.0011523257
0.00115208842
0.00115082468
0.00114877498
0.00114605152
0.00114260308
0.00113851284
0.00113366653
0.00112792735
0.00112115942
0.00111326417
0.001104237
0.00109425064
0.00108376698
0.00107366588
0.00106536153
0.0010607612
0.0007691812
0.000881405949
0.000946272055
0.00100599777
0.00105440492
0.00109038364
0.00111537333
0.00113184927
0.00114233386
0.00114862934
0.00115203714
0.00115344804
0.00115345308
0.00115243713
0.00115063038
0.00114813065
0.0011448548
0.00114085082
0.00113594586
0.00112991898
0.00112251928
0.00111350157
0.00110269335
0.00109010992
0.0010761345
0.00106177419
0.00104897464
0.0010407906
0.000769204648
0.000881494719
0.000946447834
0.00100625738
0.00105471168
0.00109066682
0.00111562858
0.00113225219
0.0011429165
0.00114942314
0.00115307256
0.00115475425
0.00115505771
0.00115436512
0.00115290131
0.0011507537
0.00114781388
0.00114409649
0.00113936703
0.00113330562
0.00112551066
0.00111552105
0.00110287992
0.00108727321
0.00106878347
0.00104832638
0.0010283142
0.00101370543
0.000769219524
0.000881546115
0.000946535409
0.00100637707
0.00105483945
0.00109085209
0.00111593761
0.00113271879
0.00114357646
0.00115031384
0.00115423311
0.00115622612
0.00115688539
0.00115659636
0.00115558626
0.00115394011
0.00115153798
0.0011483723
0.00114415631
0.00113847071
0.00113073826
0.00112020858
0.00110598439
0.00108714942
0.00106308276
0.00103412111
0.00100265381
0.000976735214
0.00076922239
0.0008815578
0.000946555966
0.00100643099
0.0010549622
0.0010910713
0.00111628498
0.00113323004
0.00114429081
0.00115127408
0.00115548657
0.00115782623
0.00115889376
0.00115908516
0.00115864036
0.00115765439
0.00115601762
0.00115372466
0.00115046718
0.00114575697
0.00113885522
0.00112868063
0.00111372041
0.00109202521
0.00106147286
0.00102080238
0.000971959308
0.000929941665
0.000769220239
0.000881560244
0.00094658264
0.00100650376
0.00105510426
0.00109130959
0.00111665149
0.00113376167
0.00114502921
0.00115226625
0.00115678647
0.00115949741
0.00116101305
0.00116174759
0.00116196514
0.00116178688
0.0011611416
0.00116006516
0.00115828655
0.00115533207
0.00115040861
0.00114221113
0.0011286289
0.00110636604
0.00107065778
0.00101620005
0.000943056375
0.000884331616
0.000769221231
0.000881571452
0.000946620228
0.00100658663
0.00105525318
0.00109155013
0.00111701499
0.00113428514
0.00114575526
0.00115324406
0.00115807397
0.00116116469
0.00116314753
0.00116446126
0.00116540448
0.00116614105
0.0011666667
0.00116710528
0.00116730274
0.00116693536
0.00116538484
0.00116150093
0.00115316181
0.00113649152
0.00110465731
0.00104751279
0.000959229222
0.000878162912
0.000739823284
0.00082175941
0.000884201327
0.000954933087
0.0010200295
0.00107359793
0.00111524562
0.00114707428
0.00117120068
0.00118931871
0.0012028016
0.00121271792
0.00121989193
0.00122497634
0.00122849018
0.00123083995
0.00123222259
0.00123284501
0.00123314835
0.00123322998
0.00123316345
0.00123300492
0.00123279752
0.00123257461
0.00123236245
0.00123215711
0.00123198108
0.00123185241
0.000753017253
0.000758342338
0.000763279205
0.000796067027
0.000842674467
0.000894248227
0.000944552599
0.000990239089
0.00102976413
0.0010625737
0.00108885568
0.00110926783
0.0011246765
0.00113599692
0.00114409455
0.00114972476
0.00115340796
0.00115535657
0.00115618029
0.00115659301
0.00115672044
0.00115665758
0.00115647763
0.00115623829
0.00115598614
0.00115575928
0.00115557853
0.00115543113
0.000770751329
0.000771180423
0.000754437429
0.000761100133
0.000781416728
0.000809983779
0.000842358549
0.000875390544
0.000906941208
0.000935500403
0.00096016843
0.000980620915
0.000996973246
0.00100962908
0.00101914057
0.00102609504
0.00103104025
0.00103424458
0.00103571123
0.00103633818
0.00103667467
0.00103680531
0.00103679719
0.00103670501
0.00103657461
0.00103644494
0.00103634893
0.0010362976
0.000779775913
0.00079099766
0.000774598147
0.000775838165
0.000786414843
0.000802812086
0.0008226388
0.000844247064
0.000866340936
0.000887716477
0.000907372549
0.000924641112
0.00093920844
0.000951064951
0.000960416557
0.000967588239
0.000972945045
0.00097683867
0.000979239258
0.000980084499
0.000980424367
0.000980590549
0.000980633963
0.000980598916
0.000980524856
0.000980447124
0.000980396847
0.000980398455
0.000783409757
0.000802319776
0.000790494637
0.000794140135
0.000804524281
0.000817902845
0.00083249983
0.00084771823
0.000863263387
0.000878667918
0.000893348008
0.000906773248
0.000918575242
0.000928584593
0.000936808509
0.000943377493
0.000948489349
0.000952364243
0.00095521482
0.000956685614
0.000956774794
0.000956766858
0.000956690897
0.000956575826
0.000956450529
0.000956343345
0.000956280827
0.000956286105
0.000785363715
0.000808763142
0.000800512353
0.0008071981
0.000819846372
0.00083414453
0.000847999198
0.000860977571
0.000873272443
0.000884997115
0.000896067925
0.000906289744
0.000915461044
0.000923448536
0.000930211377
0.000935788562
0.000940272971
0.000943785141
0.000946453135
0.000948352637
0.000948340834
0.000947997191
0.000947661659
0.000947347948
0.000947073788
0.000946859616
0.000946726437
0.000946683602
0.00078656096
0.00081277161
0.000807005424
0.000816027153
0.000830806824
0.000846748491
0.000861402148
0.000874156662
0.000885280344
0.00089515411
0.000904035537
0.000912037238
0.00091917652
0.000925441647
0.000930832766
0.00093537436
0.000939113472
0.000942112205
0.000944439956
0.000946168362
0.000946136059
0.000945379271
0.000944706715
0.00094412168
0.000943633835
0.000943245221
0.000942982372
0.000942868069
0.00078735032
0.000815449213
0.000811455915
0.000822232764
0.000838696337
0.000856107806
0.000871797828
0.000884979333
0.000895866935
0.000904924663
0.00091258923
0.000919180664
0.000924896965
0.00092985386
0.000934122452
0.000937751346
0.000940779427
0.000943229925
0.00094515804
0.00094659787
0.000946075631
0.000944882029
0.000943835898
0.000942936589
0.000942191992
0.00094161516
0.000941221311
0.000941025114
0.000787909993
0.000817346271
0.000814652745
0.000826774113
0.000844570837
0.000863203222
0.000879858767
0.000893622458
0.000904641684
0.000913395242
0.000920408044
0.000926127294
0.000930879403
0.00093488447
0.000938283609
0.000941153617
0.000943525031
0.00094547744
0.000946983217
0.0009479453
0.000946487764
0.00094489718
0.000943498748
0.000942294341
0.000941293593
0.000940511168
0.000939963909
0.0009396679
0.000788327386
0.000818752582
0.000817037227
0.000830206611
0.00084907849
0.000868734502
0.000886255168
0.000900626752
0.000911934688
0.000920648869
0.000927338241
0.00093252867
0.000936635461
0.000939958449
0.000942698475
0.000944948325
0.000946798233
0.000948282957
0.000949399384
0.000949102878
0.000946907847
0.000944935679
0.000943186219
0.000941667671
0.000940395227
0.000939388884
0.000938670579
0.000938260883
0.000788650444
0.000819833726
0.000818874101
0.000832874499
0.000852626481
0.000873152325
0.000891448567
0.000906420262
0.000918095661
0.000926924936
0.000933497373
0.00093838849
0.000942075932
0.000944919834
0.000947169891
0.000948946758
0.000950368796
0.000951447825
0.000951822991
0.000949710398
0.000947140821
0.000944800778
0.000942700535
0.000940857656
0.000939296491
0.000938046251
0.000937137854
0.000936599999
0.000788907989
0.000820689856
0.000820328487
0.000834999351
0.00085548137
0.000876754093
0.00089574784
0.00091129935
0.000923383833
0.000932425854
0.000939020727
0.000943775054
0.000947210625
0.000949733361
0.000951632425
0.000953058099
0.000954142838
0.000954894994
0.0009531889
0.000950058253
0.000947133047
0.000944429869
0.000941970754
0.000939785243
0.000937910395
0.000936388776
0.000935264758
0.000934579571
0.000789118049
0.000821383878
0.0008215064
0.000836727471
0.000857822997
0.000879743057
0.000899365983
0.000915470824
0.000927984113
0.000937302045
0.000944017018
0.000948754272
0.000952066859
0.000954395561
0.00095606126
0.000957241803
0.000958077029
0.000957079618
0.00095360556
0.000950158241
0.000946883247
0.000943809038
0.000940970328
0.000938411031
0.000936184543
0.000934351458
0.000932974973
0.000932114441
0.00078929234
0.000821956782
0.000822477923
0.000838157708
0.000859775377
0.000882261529
0.000902453863
0.000919082779
0.000932030777
0.0009416651
0.000948569834
0.000953380426
0.000956671936
0.000958911775
0.000960446316
0.000961477983
0.000960927895
0.000957653239
0.000953805718
0.000950047256
0.000946414702
0.000942947142
0.00093969255
0.000936711464
0.000934077526
0.00093187485
0.000930192245
0.000929114618
0.000789438739
0.000822436122
0.000823290598
0.00083935817
0.000861425408
0.000884410739
0.000905120193
0.000922243255
0.000935623143
0.000945598988
0.0009527436
0.000957697033
0.000961049782
0.000963289734
0.000964784041
0.000964778667
0.00096198043
0.000957951174
0.000953853959
0.000949778526
0.000945767575
0.000941869179
0.000938144627
0.000934673072
0.000931552668
0.000928897751
0.000926831636
0.000925475033
0.000789562689
0.000822840904
0.000823977382
0.000840376585
0.000862834786
0.000886263478
0.000907444075
0.00092503177
0.000938835132
0.000949166935
0.000956587433
0.000961737754
0.000965219304
0.000967536186
0.00096829944
0.000966178467
0.000962378684
0.000958175285
0.000953827473
0.000949420442
0.000944998859
0.000940617132
0.000936348894
0.000932293365
0.00092857782
0.000925355103
0.000922794977
0.0009210685
0.000789668037
0.000823184514
0.000824561553
0.000841246902
0.000864047811
0.000887872529
0.00090948336
0.000927506837
0.000941721303
0.000952415496
0.000960137023
0.000965526145
0.000969192494
0.000971045907
0.000969904696
0.000966663365
0.000962788789
0.00095841877
0.000953817157
0.000949059144
0.000944186165
0.000939254594
0.000934347786
0.000929585338
0.000925128279
0.000921178129
0.000917967282
0.000915738236
0.000789757557
0.000823476552
0.000825059816
0.000841993635
0.000865096731
0.000889276551
0.000911280501
0.00092971122
0.000944321015
0.00095537729
0.000963415856
0.000969075565
0.000972496391
0.000972726132
0.000970459545
0.000967241283
0.000963308727
0.000958785228
0.000953930101
0.000948802474
0.000943433294
0.000937873915
0.000932211989
0.000926585491
0.000921193002
0.000916296723
0.000912213622
0.000909288665
0.000789833298
0.000823724012
0.000825484284
0.000842634612
0.000866005102
0.000890503814
0.000912866381
0.000931675554
0.000946661551
0.000958073438
0.000966436821
0.000972015609
0.000974129974
0.000973334466
0.000971173004
0.000968004607
0.000964042258
0.000959389995
0.000954292387
0.000948784924
0.000942877828
0.00093660652
0.000930052912
0.00092336694
0.000916785789
0.000910645412
0.000905376877
0.000901473796
0.000789896821
0.000823932118
0.000825843844
0.000843182749
0.00086678984
0.000891574465
0.000914262737
0.000933420845
0.000948760532
0.000960515557
0.000968907752
0.000973503792
0.000974763662
0.000974142341
0.000972122097
0.000969045626
0.000965098865
0.000960361167
0.000955052091
0.000949173563
0.000942700988
0.000935637241
0.000928041168
0.000920060225
0.000911964658
0.000904175601
0.000897277008
0.000891980582
0.000789949364
0.000824104927
0.000826145224
0.000843647512
0.000867463005
0.000892502523
0.000915484245
0.000934960479
0.00095062759
0.000962467085
0.000970179863
0.000974129553
0.00097561115
0.000975205256
0.000973377704
0.000970454307
0.000966591779
0.000961838888
0.000956380978
0.000950173653
0.00094313893
0.000935222858
0.000926432648
0.000916885104
0.000906864398
0.00089687999
0.00088771603
0.000880402866
0.000789991948
0.00082424575
0.000826393742
0.000844036116
0.000868033408
0.000893297749
0.000916540451
0.000936301971
0.000952059427
0.000963481101
0.000970763871
0.000974958641
0.00097670356
0.000976567035
0.000975000445
0.000972313373
0.000968632817
0.000963970981
0.000958472638
0.000952031967
0.000944494216
0.000935714568
0.00092560386
0.000914196987
0.000901746161
0.000888831777
0.000876490411
0.000866201049
0.000790025471
0.000824357438
0.000826593853
0.00084435437
0.000868507791
0.000893967129
0.000917437402
0.000937255836
0.000952800065
0.000963994197
0.000971521975
0.000975999211
0.000978057036
0.000978255241
0.000977034396
0.00097469034
0.000971323173
0.000966903684
0.000961534995
0.000955034688
0.00094714463
0.000937584388
0.000926101674
0.000912560988
0.00089708271
0.00088024632
0.000863370318
0.000848539805
0.000790050769
0.000824442607
0.000826749534
0.000844607275
0.000868891371
0.00089446503
0.000917988825
0.000937732961
0.00095322249
0.00096464173
0.00097244428
0.000977244007
0.000979669058
0.000980275557
0.000979498928
0.000977626526
0.000974739284
0.000970765138
0.000965773347
0.000959494126
0.000951541087
0.00094144618
0.000928702526
0.000912864139
0.000893726903
0.000871658016
0.000848060801
0.000825729765
0.000790066651
0.000824488906
0.000826825098
0.000844730403
0.000869081813
0.000894714025
0.000918237296
0.00093805762
0.000953737923
0.000965402488
0.000973507427
0.000978668175
0.000981514678
0.000982605576
0.0009823791
0.000981122939
0.00097891285
0.000975639206
0.000971358626
0.000965715643
0.000958182632
0.000948053346
0.000934449493
0.000916400642
0.000893045746
0.000864102463
0.000830295592
0.000795114972
0.000790068139
0.000824492499
0.000826832955
0.000844756397
0.00086913966
0.000894842237
0.000918470107
0.000938439054
0.000954320517
0.000966245112
0.000974673988
0.000980227811
0.000983543443
0.000985189131
0.000985615859
0.000985124162
0.000983805318
0.000981528174
0.000978376013
0.000973935739
0.000967559802
0.00095828418
0.000944736072
0.000925089577
0.000897181777
0.000859145631
0.00081017095
0.000757446361
0.0007900631
0.000824486277
0.000826841039
0.000844793893
0.000869224438
0.000894998777
0.000918732461
0.000938851834
0.00095493774
0.000967128624
0.000975892939
0.000981859945
0.000985678289
0.000987932992
0.00098909851
0.000989503338
0.000989268263
0.000988304814
0.000986747068
0.000984207365
0.000980014978
0.000973051542
0.000961493879
0.000942458516
0.000911625334
0.000863425418
0.000794318534
0.000727835412
0.00079006224
0.000824491564
0.000826864267
0.000844847633
0.000869324246
0.000895167284
0.000919002356
0.000939266801
0.000955551559
0.000968004013
0.000977101624
0.000983484781
0.000987817718
0.000990708097
0.000992663127
0.000994054
0.000995053623
0.000995663181
0.000996128075
0.000996202431
0.000995383748
0.000992716445
0.000986431953
0.000973315637
0.000947664601
0.000900164518
0.000822594744
0.000749221804
0.00075452966
0.000837753494
0.000885141816
0.000937287431
0.000986566071
0.00102935296
0.00106445668
0.0010925964
0.00111494031
0.00113249443
0.00114610775
0.00115649435
0.00116426065
0.0011699359
0.00117397835
0.00117677209
0.00117862947
0.00117979753
0.001180467
0.00118064677
0.00118057536
0.00118040556
0.00118018188
0.00117993872
0.00117970314
0.00117949692
0.00117931773
0.00117915164
0.00077155349
0.000773800947
0.000758669623
0.000766854037
0.000788438843
0.000817847819
0.000850504001
0.000883240135
0.00091402462
0.000941524286
0.00096502593
0.000984354901
0.000999718707
0.001011559
0.00102042796
0.00102689266
0.00103147433
0.00103461851
0.00103668706
0.00103785876
0.00103823791
0.00103819977
0.00103803181
0.00103779071
0.001037522
0.00103726306
0.00103704494
0.00103687438
0.000791476308
0.000787500187
0.000748282762
0.000730167385
0.000726169603
0.000732687306
0.000746386016
0.00076443763
0.000784641878
0.000805207757
0.000824740412
0.000842295509
0.000857363556
0.000869798782
0.000879719406
0.000887402477
0.000893194861
0.000897449772
0.000900488964
0.000902585962
0.000903801766
0.000904206283
0.000904207356
0.000904111625
0.000903961583
0.000903793405
0.000903638158
0.000903522354
0.000801337394
0.000808785267
0.00076864276
0.000744378032
0.000730816654
0.000725801024
0.000727538704
0.00073436451
0.000744804074
0.00075745002
0.00077099817
0.00078436553
0.000796763919
0.00080771144
0.000816995122
0.000824605405
0.0008306646
0.000835363929
0.000838916517
0.00084152813
0.000843382407
0.000844440281
0.00084462596
0.000844555191
0.000844434045
0.000844292502
0.000844157776
0.000844054115
0.00080523682
0.000820972106
0.000784789162
0.000762165255
0.000748160534
0.000740454914
0.000737632606
0.000738769662
0.000743160194
0.000750027
0.000758493196
0.000767695836
0.000776896701
0.000785545969
0.000793295176
0.000799973116
0.000805543687
0.000810060107
0.000813625039
0.000816361558
0.000818395028
0.000819843011
0.000820388232
0.00082017969
0.000819957581
0.000819741791
0.000819552555
0.000819409324
0.000807341205
0.000827860546
0.000794816642
0.000774543905
0.000762367511
0.000755608858
0.000752490966
0.000752064978
0.000753897294
0.000757628243
0.000762801422
0.000768886689
0.0007753592
0.000781770848
0.000787788436
0.000793198793
0.000797893051
0.000801841301
0.000805066347
0.000807622213
0.000809578781
0.000811011382
0.000811845693
0.000811374398
0.000810945501
0.000810568556
0.00081025621
0.000810016384
0.000808634439
0.000832130276
0.000801259862
0.000782751316
0.000772211932
0.000766906085
0.000764763281
0.000764580449
0.000765850095
0.00076832437
0.000771774847
0.000775927624
0.000780478328
0.000785134564
0.000789651093
0.000793846007
0.000797601329
0.000800853879
0.000803582314
0.000805795089
0.000807520426
0.000808798071
0.000809488954
0.000808696128
0.000808003608
0.000807400106
0.000806904169
0.000806533206
0.000809488683
0.000834983447
0.000805665076
0.000788463887
0.000779153669
0.000775043774
0.000773934957
0.000774436563
0.000775904325
0.000778058985
0.000780745947
0.000783830755
0.000787164864
0.000790591867
0.000793965034
0.00079716053
0.000800083802
0.000802669861
0.00080488013
0.000806698381
0.000808123707
0.000809165551
0.000809179615
0.000808037128
0.000807049697
0.00080621715
0.000805544193
0.000805038395
0.000810096
0.00083700697
0.000808825421
0.00079262308
0.00078426328
0.00078109689
0.000780866127
0.000782066466
0.000783945161
0.000786163081
0.000788572508
0.000791102842
0.000793699879
0.00079630489
0.000798853393
0.000801279822
0.000803523309
0.000805531933
0.000807241996
0.000808656579
0.00080974783
0.00081046039
0.000809328959
0.000807879594
0.000806622234
0.000805558614
0.000804695158
0.000804041028
0.000810549499
0.000838507675
0.000811180236
0.000795756333
0.000788156072
0.000785758093
0.000786269673
0.000788110509
0.000790447208
0.00079288429
0.000795259007
0.000797527425
0.000799690677
0.00080175642
0.000803722635
0.00080557325
0.000807280779
0.00080879218
0.00081007344
0.000811113031
0.00081189478
0.000811430471
0.000809468382
0.000807723789
0.000806197936
0.000804897802
0.000803834728
0.000803022376
0.000810900473
0.00083966137
0.000812992763
0.000798185771
0.000791204383
0.000789447868
0.000790599245
0.000793022471
0.000795820933
0.0007985495
0.000801023297
0.000803206959
0.000805134206
0.000806857815
0.000808422184
0.000809851145
0.000811146836
0.000812255086
0.000813189705
0.000813893384
0.000813725277
0.000811686383
0.000809427404
0.000807394936
0.000805598664
0.000804053807
0.000802779732
0.000801797605
0.000811180025
0.000840574604
0.000814426853
0.00080011715
0.000793647495
0.00079243504
0.000794145553
0.000797099919
0.000800349938
0.000803406589
0.000806060503
0.000808275236
0.000810103304
0.000811628327
0.000812929191
0.000814061406
0.000815052422
0.000815853527
0.000816491058
0.000816493119
0.000814465611
0.000811707099
0.000809159482
0.000806836962
0.000804759866
0.000802954463
0.000801451306
0.000800282349
0.000811407716
0.000841314377
0.000815587444
0.000801685487
0.000795644871
0.000794899637
0.000797103585
0.000800543612
0.000804228654
0.000807630882
0.000810516184
0.00081284165
0.0008146698
0.000816105291
0.0008172527
0.000818192684
0.000818973899
0.000819553544
0.000819725659
0.000817727792
0.000814529468
0.000811500194
0.000808659383
0.000806032493
0.000803652501
0.000801559574
0.000799798928
0.000798417176
0.00081159632
0.000841924418
0.000816543782
0.000802981494
0.000797305341
0.000796965742
0.000799608595
0.000803493729
0.00080759421
0.000811348087
0.000814497452
0.000816990021
0.000818892638
0.000820324189
0.00082140858
0.000822246592
0.000822904201
0.000823253631
0.000821368082
0.000817832178
0.000814398681
0.000811091384
0.00080793925
0.000804979742
0.000802260411
0.000799838394
0.000797777729
0.000796144578
0.000811754467
0.00084243418
0.000817342764
0.000804067368
0.000798704519
0.000798720496
0.00080175639
0.000806050428
0.000810545611
0.000814650196
0.000818084105
0.000820784354
0.00082281853
0.000824315169
0.000825413089
0.000826229205
0.000826842958
0.000825200105
0.00082151941
0.000817799671
0.000814122756
0.000810517883
0.000807022671
0.000803686942
0.00080057467
0.000797763527
0.000795341623
0.000793401208
0.000811888143
0.000842864012
0.000818016873
0.000804986539
0.000799895735
0.00080022593
0.000803615755
0.000808286234
0.000813155209
0.000817605116
0.000821335708
0.000824273021
0.000826483385
0.000828102187
0.000829280038
0.000830146628
0.000828952284
0.000825418875
0.000821607896
0.00081769835
0.00081376133
0.000809828819