/*--------------------------------*- C++ -*----------------------------------*\
| =========                 |                                                 |
| \\      /  F ield         | foam-extend: Open Source CFD                    |
|  \\    /   O peration     | Version:     4.1                                |
|   \\  /    A nd           | Web:         http://www.foam-extend.org         |
|    \\/     M anipulation  |                                                 |
\*---------------------------------------------------------------------------*/
FoamFile
{
    version     2.0;
    format      ascii;
    class       volVectorField;
    location    "0.05";
    object      U;
}
// * * * * * * * * * * * * * * * * * * * * * * * * * * * * * * * * * * * * * //

dimensions      [0 1 -1 0 0 0 0];

internalField   nonuniform List<vector> 
35840
(
(3.94118022 0.268295518 0.261624249)
(3.2090506 0.371154558 0.356761984)
(2.44242007 0.266007505 0.249423248)
(1.72587652 0.157057949 0.142055323)
(1.29809547 0.0894573342 0.0776756804)
(1.05357335 0.0528017369 0.0447772779)
(0.889944143 0.0325828655 0.0284050896)
(0.77571217 0.0204097328 0.0198172088)
(0.696088481 0.0127266345 0.0151781073)
(0.639108537 0.00776559273 0.0125574064)
(0.597222466 0.00443677391 0.010813634)
(0.56617694 0.00213622613 0.00938411136)
(0.543303202 0.000551321584 0.00806412399)
(0.52671544 -0.000506399225 0.00680738864)
(0.514999637 -0.00117250061 0.00562515268)
(0.507059991 -0.0015503952 0.00454422258)
(0.502007489 -0.00172012033 0.00358736098)
(0.499121069 -0.00174509523 0.00276563205)
(0.497818704 -0.00167298038 0.00207801878)
(0.49763485 -0.00153794244 0.00151475542)
(0.498201642 -0.00136410678 0.00106152483)
(0.49923183 -0.00116812573 0.000702206861)
(0.500503671 -0.000961138542 0.000420825949)
(0.501847804 -0.000750309293 0.000202945932)
(0.503135369 -0.000540125097 3.64577452e-05)
(0.504267829 -0.000333645725 -8.84606586e-05)
(0.505171917 -0.000133278957 -0.000179405062)
(0.505792468 5.87083245e-05 -0.000242006227)
(4.52144677 0.409615245 0.331007459)
(4.20228248 0.636960105 0.507921113)
(3.63967176 0.542212632 0.406552443)
(2.9470675 0.391462577 0.261810365)
(2.41714966 0.269860451 0.153308945)
(2.0562038 0.185809674 0.0878343783)
(1.79421761 0.129187876 0.0530187868)
(1.59914752 0.0897237518 0.0352304373)
(1.45524204 0.0614467984 0.0259596769)
(1.34857356 0.0409625294 0.0208655349)
(1.26882143 0.0259971685 0.017654592)
(1.209299 0.0150476341 0.015190396)
(1.1653415 0.00714287049 0.0130297877)
(1.13340507 0.00159465562 0.0110446938)
(1.1107272 -0.00213639688 0.00921871503)
(1.09513751 -0.00448923462 0.00756811877)
(1.0849223 -0.00581955822 0.00611028711)
(1.07872204 -0.00641332097 0.00485136901)
(1.07546416 -0.00649309445 0.00378594099)
(1.07430903 -0.00622458644 0.00289957798)
(1.07460219 -0.00572692786 0.0021716967)
(1.07583673 -0.00508362153 0.00157946872)
(1.07762183 -0.00435151169 0.00110025977)
(1.07965687 -0.00356788798 0.000713355006)
(1.08170993 -0.0027566204 0.000401206161)
(1.08360062 -0.00193363662 0.000149725576)
(1.08518808 -0.00111106246 -5.21200108e-05)
(1.08636376 -0.000299980931 -0.000212830029)
(4.44255642 0.221270954 0.337516532)
(4.08282966 0.435800484 0.517654522)
(3.65973235 0.461875863 0.417497669)
(3.14123608 0.409111983 0.276829603)
(2.72220294 0.335443223 0.168648539)
(2.41882316 0.264359994 0.0992659145)
(2.18621961 0.203771652 0.0604758848)
(2.00359465 0.153815676 0.0403524511)
(1.86175235 0.112888063 0.0298616556)
(1.75156874 0.0797295195 0.024051329)
(1.66574624 0.0533350751 0.0203365965)
(1.5994065 0.0327976927 0.0174435665)
(1.54890166 0.0172721006 0.0148875614)
(1.51116482 0.00594278551 0.0125475772)
(1.48359325 -0.00197532614 0.0104203391)
(1.46400466 -0.0072053132 0.00852811534)
(1.45059926 -0.010383616 0.00688440052)
(1.44191152 -0.0120437419 0.00548603947)
(1.43676238 -0.0126127556 0.00431587569)
(1.43421365 -0.0124177512 0.00334918684)
(1.43352445 -0.011699646 0.00255816795)
(1.43411233 -0.0106303722 0.0019140839)
(1.43552127 -0.00932876901 0.00139003319)
(1.43739371 -0.00787414619 0.000962769695)
(1.43944685 -0.00631840432 0.000613312112)
(1.44145448 -0.00469680431 0.000326743336)
(1.44323445 -0.0030366545 9.14839221e-05)
(1.44464084 -0.00136316859 -0.000101455547)
(4.4142051 0.123479952 0.337504373)
(3.97558002 0.285750743 0.515708277)
(3.52907929 0.345622849 0.410460173)
(3.05269901 0.340740509 0.268263003)
(2.69996126 0.306329266 0.161324598)
(2.46016522 0.26142706 0.092955316)
(2.2808847 0.215461414 0.0546037843)
(2.13955553 0.1721909 0.0348954849)
(2.02757175 0.132842665 0.0249307968)
(1.93774188 0.098070505 0.0197135028)
(1.86493303 0.0683440487 0.0166213103)
(1.80625042 0.0438444316 0.0143331103)
(1.75971458 0.024422158 0.012325661)
(1.72354289 0.00964394769 0.0104637326)
(1.6960608 -0.00111004621 0.00874588719)
(1.67572206 -0.0085365425 0.00720042036)
(1.66115026 -0.0133212309 0.00584856538)
(1.65114952 -0.0160793441 0.00469437304)
(1.64470804 -0.0173251594 0.00372716949)
(1.64098558 -0.0174661351 0.00292680498)
(1.63929266 -0.0168126886 0.00226967045)
(1.63906758 -0.0155936145 0.00173161843)
(1.63985516 -0.0139714958 0.00128988778)
(1.64128618 -0.0120581032 0.000925516576)
(1.64305732 -0.00992957805 0.000623816552)
(1.64491655 -0.00764057282 0.000373419633)
(1.6466538 -0.00523577359 0.000165372182)
(1.64809559 -0.00275761993 -7.47362675e-06)
(4.40614084 0.0840394537 0.338116736)
(3.927546 0.205719637 0.517579733)
(3.43776142 0.263111469 0.409136219)
(2.94698475 0.272287808 0.262311179)
(2.60819344 0.256583805 0.152902816)
(2.39599666 0.229617807 0.0840414816)
(2.24859118 0.19815335 0.0459809339)
(2.13846618 0.165573596 0.0267862919)
(2.0541282 0.133529629 0.0174214984)
(1.98710885 0.103148565 0.0128672635)
(1.93207945 0.0754568566 0.0105001495)
(1.8865624 0.0512702774 0.00898050333)
(1.84930438 0.0310449282 0.00774797024)
(1.81933775 0.0148487733 0.00662900628)
(1.79575296 0.00243326345 0.0055936068)
(1.77766389 -0.00665095572 0.00465287786)
(1.764214 -0.0129412925 0.00382108651)
(1.75460534 -0.0169757037 0.00310369958)
(1.74811601 -0.0192378588 0.00249755126)
(1.74410986 -0.0201319094 0.00199233395)
(1.74203663 -0.0199807047 0.00157310096)
(1.74142491 -0.0190338191 0.00122421533)
(1.74187361 -0.017476738 0.000931502999)
(1.74304034 -0.0154427381 0.000684183009)
(1.74462869 -0.0130282508 0.000474880717)
(1.74638039 -0.0103080758 0.000298104675)
(1.74807132 -0.00734770402 0.000149291797)
(1.74951025 -0.00421144449 2.4356991e-05)
(4.40230294 0.0614899042 0.338761392)
(3.90290985 0.15299272 0.519479371)
(3.3839557 0.202686646 0.409807971)
(2.87304174 0.217952486 0.260100372)
(2.52893896 0.21293417 0.148515958)
(2.32170339 0.197281984 0.0787372308)
(2.1855031 0.176215125 0.0404373825)
(2.0902557 0.152563849 0.0212586211)
(2.0221646 0.127817379 0.0120469004)
(1.97097117 0.10299679 0.00774995507)
(1.93021385 0.0791052454 0.00572964681)
(1.8968215 0.0570946969 0.0046375229)
(1.8693599 0.0376956449 0.00389370118)
(1.84696824 0.0213170383 0.00329292438)
(1.82901044 0.00804908028 0.0027711568)
(1.81495125 -0.00226531484 0.00231300181)
(1.80428633 -0.00993426319 0.00191523867)
(1.79653563 -0.0153317917 0.00157510749)
(1.79124372 -0.0188339687 0.00128854485)
(1.78798436 -0.0207817767 0.00104979199)
(1.78636782 -0.021466143 0.000849529965)
(1.78604012 -0.0211250383 0.000677278622)
(1.78668129 -0.0199451586 0.000525561224)
(1.78799875 -0.0180683777 0.000390848334)
(1.78972165 -0.0156051909 0.000272146971)
(1.79160001 -0.012648993 0.000169015965)
(1.79340686 -0.00928741694 8.0721131e-05)
(1.79494191 -0.00560978886 5.87762707e-06)
(4.40009586 0.0467732379 0.339259836)
(3.88877934 0.117354003 0.520967073)
(3.35142528 0.159350741 0.411062492)
(2.82438283 0.17664464 0.259999005)
(2.47141227 0.177762261 0.147110279)
(2.2614347 0.16944193 0.0766059308)
(2.12694978 0.155721445 0.0379742377)
(2.0368833 0.138873549 0.0186264786)
(1.97634581 0.120125574 0.00934088351)
(1.93396764 0.100317324 0.00504862378)
(1.90235528 0.0802961066 0.00310039467)
(1.87772226 0.0609439673 0.00214509855)
(1.85814832 0.0430466255 0.00159730601)
(1.84251504 0.0271769801 0.00123588946)
(1.83011838 0.0136503785 0.000975415811)
(1.82048442 0.00254931617 0.000780116151)
(1.81325451 -0.00621514023 0.000632049515)
(1.8081191 -0.0128351487 0.000519012244)
(1.80479658 -0.0175497478 0.000432453836)
(1.80301832 -0.0206057079 0.000365573178)
(1.80252715 -0.0222336585 0.000309949818)
(1.80307584 -0.0226346001 0.000256814572)
(1.80442324 -0.0219749475 0.000202070867)
(1.80632855 -0.0203897294 0.00014666018)
(1.80855049 -0.0179936656 9.33396386e-05)
(1.81085182 -0.0148930983 4.4648172e-05)
(1.81300673 -0.0111952976 2.04113354e-06)
(1.81480916 -0.00701457013 -3.42573799e-05)
(4.39874732 0.0366779751 0.339657995)
(3.88005095 0.0924784841 0.522162077)
(3.33057207 0.127572133 0.412354809)
(2.79150995 0.144578829 0.260635121)
(2.43036006 0.149013519 0.146991415)
(2.2159997 0.145529168 0.0760352794)
(2.08008052 0.137089287 0.0371995319)
(1.99106418 0.125390061 0.0177372914)
(1.93357079 0.111365976 0.00836889663)
(1.89566493 0.0956838611 0.0040185697)
(1.86940011 0.0790458645 0.00203679712)
(1.85047857 0.0622282075 0.00107764435)
(1.83654643 0.0459872325 0.000560224925)
(1.82616762 0.0309530146 0.000260699028)
(1.81844757 0.0175673594 8.52390246e-05)
(1.81283297 0.00607734366 -1.2021441e-05)
(1.80896908 -0.00343407379 -5.78912503e-05)
(1.8066067 -0.0110006387 -7.040269e-05)
(1.80554852 -0.0167302068 -6.22149756e-05)
(1.80562097 -0.0207685629 -4.34559435e-05)
(1.80665739 -0.0232724102 -2.47028229e-05)
(1.80848905 -0.0243885438 -1.49160738e-05)
(1.81093376 -0.0242455697 -1.65225027e-05)
(1.8137901 -0.0229568682 -2.65276807e-05)
(1.81683854 -0.0206299725 -4.06707908e-05)
(1.81984947 -0.0173757846 -5.54263871e-05)
(1.82259453 -0.0133157986 -6.86658851e-05)
(1.82485889 -0.00858693804 -7.95673773e-05)
(4.39785258 0.029351621 0.339972071)
(3.87428123 0.0741976536 0.523088503)
(3.31652719 0.103405277 0.41344405)
(2.76862542 0.119106603 0.261387175)
(2.40071111 0.125151674 0.147308512)
(2.18201093 0.124754073 0.076092345)
(2.04377918 0.119999855 0.0371555396)
(1.95422707 0.112080999 0.0176438991)
(1.8977104 0.101656536 0.00822941118)
(1.86198286 0.0892302876 0.00382920696)
(1.8387791 0.0753769496 0.0017956835)
(1.82347909 0.0607700879 0.000789899461)
(1.81342213 0.0461087336 0.000238903093)
(1.80691227 0.0320252877 -7.75841205e-05)
(1.80286388 0.0190217333 -0.000254282215)
(1.80060533 0.00744647382 -0.000340213221)
(1.79972837 -0.00249629363 -0.000365445186)
(1.79998 -0.0107196064 -0.000350796039)
(1.80119147 -0.0172197779 -0.000311793027)
(1.80323673 -0.0220485495 -0.000262102358)
(1.80600371 -0.0252841912 -0.000215291794)
(1.80937136 -0.0270082677 -0.000180411766)
(1.81319254 -0.0272989737 -0.00015868984)
(1.81728697 -0.0262358813 -0.000146594053)
(1.82144292 -0.0239080897 -0.00013988758)
(1.82542717 -0.0204215299 -0.00013533819)
(1.8289992 -0.0159051418 -0.000131074781)
(1.83192682 -0.0105151731 -0.000126283151)
(4.39722508 0.0237939836 0.340215441)
(3.87027662 0.0602379202 0.523797582)
(3.30669882 0.0845331314 0.414313561)
(2.75225493 0.098540095 0.262076594)
(2.3789102 0.105125308 0.147738371)
(2.1563375 0.106545839 0.0763643379)
(2.01565658 0.104231091 0.0373712442)
(1.92495792 0.0989704893 0.0178376621)
(1.86844111 0.091189413 0.00839978083)
(1.83367051 0.0812459459 0.00396629667)
(1.81218584 0.0696012005 0.00188941386)
(1.79916335 0.0568331565 0.000835158909)
(1.79173695 0.043573685 0.000237394387)
(1.78802236 0.0304291112 -0.000119358368)
(1.78677958 0.0179200794 -0.00032774183)
(1.78722601 0.00645064931 -0.000436376249)
(1.78888764 -0.00369755279 -0.000475429017)
(1.7914817 -0.0123494378 -0.000466607032)
(1.79484018 -0.0194137351 -0.000427744309)
(1.79885735 -0.0248587893 -0.000375903652)
(1.80344894 -0.028683318 -0.000326392406)
(1.80851616 -0.0308969111 -0.000287211069)
(1.81392565 -0.0315188611 -0.000258642496)
(1.8195 -0.030584889 -0.000237577611)
(1.82501946 -0.0281545899 -0.000220677822)
(1.83023266 -0.024318743 -0.000205632693)
(1.83487262 -0.0192063264 -0.000191176386)
(1.83867584 -0.0129896711 -0.000176714232)
(4.3967686 0.019437385 0.340403097)
(3.86739172 0.0492526545 0.524341523)
(3.29959133 0.0694438652 0.414997204)
(2.74023582 0.0816590302 0.26265809)
(2.36256608 0.0881349514 0.148155815)
(2.13666849 0.0904927508 0.0766792908)
(1.99365739 0.08968866 0.0376493178)
(1.90158483 0.0862066005 0.0181024219)
(1.84456477 0.080287846 0.00865014127)
(1.81004606 0.072169686 0.00419362733)
(1.78944685 0.0622149492 0.00208363316)
(1.77781308 0.050914515 0.000988965037)
(1.77214243 0.0388309589 0.000348196642)
(1.77041929 0.0265299957 -5.00143154e-05)
(1.77128848 0.0145253332 -0.000295700136)
(1.7738792 0.00324425467 -0.000435573044)
(1.77765766 -0.0069862767 -0.00049871411)
(1.78230761 -0.0159313557 -0.000507241451)
(1.7876519 -0.0234317077 -0.000481405782)
(1.79359282 -0.0293803495 -0.000441142986)
(1.80005495 -0.0336960336 -0.000401192611)
(1.80694453 -0.0363128841 -0.000367550278)
(1.81412566 -0.0371847717 -0.000340202169)
(1.82140835 -0.0362933632 -0.000317000691)
(1.82854903 -0.0336565578 -0.0002958979)
(1.83526111 -0.0293385303 -0.000275618153)
(1.84123258 -0.0234600995 -0.000255445196)
(1.84614921 -0.0162067399 -0.00023499571)
(4.39642602 0.0159332257 0.340548016)
(3.86524585 0.0403928156 0.52476128)
(3.2942974 0.0571293416 0.41553288)
(2.73118889 0.0675970935 0.263132153)
(2.35006448 0.0735903338 0.148521232)
(2.12135225 0.0762943301 0.0769756325)
(1.97621325 0.0763298407 0.037919453)
(1.88270772 0.0739581447 0.0183617362)
(1.82491171 0.0692833716 0.00889781357)
(1.79020864 0.0624482107 0.00442328229)
(1.7699439 0.0537332933 0.00228725755)
(1.75908207 0.0435520061 0.00115991041)
(1.7545323 0.0323998121 0.000482989959)
(1.75418987 0.0207949462 4.82665395e-05)
(1.75661918 0.00922783583 -0.000231716728)
(1.76088588 -0.00187377171 -0.00040148965)
(1.76640983 -0.0121611366 -0.000488991869)
(1.772848 -0.0213606763 -0.00051750629)
(1.78001747 -0.0292582491 -0.000510278122)
(1.7878215 -0.0356754159 -0.000487919557)
(1.79618403 -0.0404515493 -0.00046261559)
(1.80500695 -0.0434429096 -0.000438684423)
(1.81414155 -0.0445303532 -0.00041649327)
(1.82337321 -0.043628655 -0.000395158777)
(1.83241934 -0.0406988993 -0.000373886949)
(1.84093869 -0.0357644222 -0.000352153418)
(1.84855058 -0.0289277381 -0.000329546953)
(1.8548637 -0.0203842406 -0.000305741615)
(4.39616176 0.013057842 0.340660657)
(3.86360357 0.0331081183 0.525088417)
(3.2902455 0.0469128184 0.415954981)
(2.72421151 0.0557413022 0.263515167)
(2.34029923 0.0610501767 0.148829464)
(2.10920641 0.0637133952 0.077236036)
(1.96215483 0.0641148558 0.0381606614)
(1.86723494 0.0623584013 0.0185934004)
(1.80851483 0.0584502424 0.00911898423)
(1.77334613 0.0524618155 0.00462926331)
(1.75303499 0.0446067066 0.00247186946)
(1.74249866 0.0352306375 0.00131769001)
(1.73859194 0.0247662298 0.000610740836)
(1.73915325 0.0136807651 0.000145213157)
(1.74269628 0.00243019678 -0.000163868076)
(1.74824561 -0.00857325275 -0.00035903316)
(1.75519056 -0.0189762082 -0.000468155398)
(1.76317653 -0.028480055 -0.000517231813)
(1.77202105 -0.0368218605 -0.000531700328)
(1.78162707 -0.0437545115 -0.000529818481)
(1.79191783 -0.0490394069 -0.000520793575)
(1.80278924 -0.0524510675 -0.00050844392)
(1.81407586 -0.0537856161 -0.000494035432)
(1.82553038 -0.0528733308 -0.000477951784)
(1.83681673 -0.0495981131 -0.000460247311)
(1.84751658 -0.0439229678 -0.000440685586)
(1.85715055 -0.0359177554 -0.000418808844)
(1.86521456 -0.025782827 -0.000394122098)
(4.39595272 0.0106627839 0.34074923)
(3.8623132 0.0270306872 0.52534691)
(3.28706281 0.038329467 0.416291404)
(2.71869841 0.0456515416 0.263825655)
(2.33250221 0.0501803676 0.149086578)
(2.09938124 0.0525577527 0.0774592776)
(1.95061498 0.0529990456 0.0383698512)
(1.85433158 0.0514991472 0.0187944522)
(1.7946081 0.0479968849 0.00931061833)
(1.75878587 0.0425116967 0.00480775957)
(1.73815435 0.0352032252 0.00263229579)
(1.72760752 0.0263585409 0.00145567625)
(1.72397036 0.0163513866 0.000723591762)
(1.72505108 0.00559557731 0.000232595033)
(1.72933609 -0.00549595432 -0.000100033932)
(1.73582852 -0.0165381249 -0.00031572159)
(1.7439067 -0.0271844237 -0.000444292005)
(1.75322127 -0.0371177344 -0.00051517798)
(1.76359618 -0.046029906 -0.000552729018)
(1.77494248 -0.0536093524 -0.0005714795)
(1.78719086 -0.0595403783 -0.000579129178)
(1.80023796 -0.0635076924 -0.000579908265)
(1.81390489 -0.0652052844 -0.000576229604)
(1.82790841 -0.0643544897 -0.000569354879)
(1.84184554 -0.060733349 -0.000559581448)
(1.85519528 -0.0542160448 -0.000546454077)
(1.86734105 -0.0448174144 -0.000529047363)
(1.87761703 -0.0327333393 -0.000506373003)
(4.39578342 0.00864652182 0.340820025)
(3.86127362 0.0219077115 0.525554695)
(3.28449907 0.0310535782 0.416563667)
(2.71423556 0.0370091152 0.264079982)
(2.32613395 0.0407284272 0.14930152)
(2.09126311 0.0426732283 0.077649753)
(1.94095092 0.0429370309 0.0385501611)
(1.84336274 0.0414406621 0.0189680617)
(1.78259266 0.0380784295 0.00947592783)
(1.74598451 0.0328326658 0.00496154943)
(1.72482577 0.0258194528 0.00277055192)
(1.71400344 0.0172741115 0.00157483281)
(1.71033225 0.00751374623 0.00082181998)
(1.71160976 -0.0031043507 0.000310305702)
(1.71631442 -0.0142170075 -4.05644433e-05)
(1.72344502 -0.0254751772 -0.000273110488)
(1.73239098 -0.0365450952 -0.0004211145)
(1.74281966 -0.0470952734 -0.00051479324)
(1.75457442 -0.0567783386 -0.000574889547)
(1.76759063 -0.065224342 -0.000613529329)
(1.78182359 -0.0720388271 -0.000638366643)
(1.79718687 -0.076803781 -0.000654644034)
(1.81350048 -0.0790874279 -0.000665706009)
(1.83044853 -0.0784685559 -0.000673076396)
(1.8475508 -0.074578276 -0.00067673305)
(1.86415491 -0.0671587687 -0.000675468176)
(1.87945764 -0.0561332064 -0.000667351085)
(1.89256315 -0.0416741319 -0.000650374753)
(4.39564322 0.00693788444 0.340877785)
(3.86041579 0.0175615273 0.525725042)
(3.28238266 0.0248531641 0.416788036)
(2.71053512 0.029581445 0.264291433)
(2.32081189 0.0325038209 0.149483019)
(2.08440709 0.0339377781 0.077813202)
(1.93268612 0.0338872888 0.0387062616)
(1.83384699 0.0322237619 0.0191186754)
(1.77200328 0.028813394 0.00961918722)
(1.73450819 0.0236119447 0.00509458788)
(1.7126562 0.0166992174 0.00289001478)
(1.70133899 0.00826271786 0.00167801455)
(1.69737477 -0.00143706867 0.000907997659)
(1.69856479 -0.0121031056 0.000380965912)
(1.70339318 -0.0234282175 1.62376117e-05)
(1.71087455 -0.0351039821 -0.000232213738)
(1.7204236 -0.0468141862 -0.000400651414)
(1.73173719 -0.0582204257 -0.000516499962)
(1.74469814 -0.0689471326 -0.000597521759)
(1.75929024 -0.0785728131 -0.000655479709)
(1.77552033 -0.0866205414 -0.000698976912)
(1.79334702 -0.0925536028 -0.000734359529)
(1.81261349 -0.0957844005 -0.000765419716)
(1.83298575 -0.0957038433 -0.000793450997)
(1.85390289 -0.0917370807 -0.000817600139)
(1.87455107 -0.0834278627 -0.000835290075)
(1.89387693 -0.0705464961 -0.000842803232)
(1.91065809 -0.0532048269 -0.000836244795)
(4.3955247 0.00548594724 0.340926056)
(3.8596917 0.0138648624 0.525867728)
(3.28059398 0.0195604546 0.416976616)
(2.70739459 0.0231972266 0.264470383)
(2.31626277 0.0253625771 0.149638503)
(2.07848971 0.0262562204 0.0779550057)
(1.92546751 0.0258156016 0.0388426045)
(1.82542066 0.0238798433 0.0192503907)
(1.76248147 0.0202978031 0.00974425261)
(1.72401547 0.0150054116 0.00521046557)
(1.70132883 0.00805023357 0.00299392417)
(1.68932547 -0.000426917245 0.00176835154)
(1.68483467 -0.0102244781 0.000985467575)
(1.68567144 -0.0211099242 0.000447407684)
(1.69033803 -0.0328354203 7.04907593e-05)
(1.69787869 -0.0451377331 -0.00019493949)
(1.70774288 -0.0577265256 -0.000383431903)
(1.71967507 -0.0702712941 -0.000519228709)
(1.73362261 -0.0823838708 -0.000619568723)
(1.7496495 -0.0935997937 -0.000697209931)
(1.76785271 -0.103357806 -0.000762127943)
(1.78827874 -0.110986383 -0.000821512155)
(1.81083624 -0.115706527 -0.00087928406)
(1.83520622 -0.116661852 -0.000936170657)
(1.86075829 -0.112987431 -0.000989986876)
(1.88649036 -0.103926295 -0.00103598407)
(1.91101931 -0.0889931098 -0.00106743619)
(1.93265809 -0.0681665036 -0.00107703513)
(4.39542256 0.00425354083 0.340967432)
(3.85906761 0.0107249362 0.525989875)
(3.2790489 0.0150523215 0.417138254)
(2.70467043 0.0177290818 0.264624623)
(2.31229064 0.0191958275 0.149773784)
(2.07327554 0.0195557572 0.0780795257)
(1.91903432 0.018696666 0.0389628984)
(1.81781168 0.0164367383 0.0193665974)
(1.75375597 0.0126140454 0.00985433544)
(1.71424439 0.00714833075 0.00531212221)
(1.69059692 5.61745724e-05 0.00308519127)
(1.67773102 -0.00856998782 0.00184902221)
(1.67249288 -0.0185907143 0.00105723636)
(1.67271545 -0.0298403591 0.000510178604)
(1.67692851 -0.0421340637 0.000120075114)
(1.68421028 -0.0552617733 -0.000162345673)
(1.69405639 -0.0689750428 -0.000368454508)
(1.70627872 -0.0829732726 -0.000521800126)
(1.72091794 -0.0968762634 -0.000640763927)
(1.73815775 -0.1101918 -0.000739776426)
(1.7582369 -0.122280074 -0.000830194221)
(1.78135221 -0.132323628 -0.000919958071)
(1.80754653 -0.139314369 -0.00101304917)
(1.83657999 -0.142074319 -0.00110940547)
(1.86779267 -0.139331139 -0.00120494728)
(1.89998226 -0.1298707 -0.00129162209)
(1.93134067 -0.112779201 -0.00135771541)
(1.95951807 -0.0877630929 -0.00138978422)
(4.3953331 0.00321299139 0.341003793)
(3.85851986 0.00807278665 0.526096614)
(3.27768832 0.0112370267 0.417279371)
(2.70226134 0.0130815523 0.26475975)
(2.30875582 0.0139215594 0.149893052)
(2.06859519 0.013781856 0.0781900003)
(1.91319768 0.0125132882 0.039069948)
(1.81082218 0.00992071235 0.0194699194)
(1.7456284 0.00583534298 0.00995185087)
(1.70500285 0.000161825109 0.00540192729)
(1.68027637 -0.00711574127 0.00316642054)
(1.66638101 -0.0159559073 0.00192286057)
(1.66017829 -0.0262827794 0.00112432973)
(1.65952127 -0.0379998322 0.00056738115)
(1.66296657 -0.0509915935 0.000163471579)
(1.66962785 -0.0651154723 -0.000133758054)
(1.67905692 -0.0801887061 -0.00035472572)
(1.69115167 -0.095968858 -0.000524180258)
(1.70607606 -0.112113336 -0.000662455674)
(1.72417959 -0.128130874 -0.000785937058)
(1.74590831 -0.143324473 -0.000907525926)
(1.77169708 -0.156733637 -0.00103615357)
(1.80183 -0.167089669 -0.001176001)
(1.83626048 -0.172807638 -0.00132604549)
(1.87439298 -0.172050377 -0.00147944828)
(1.91485268 -0.162911032 -0.00162295038)
(1.95530541 -0.14375668 -0.0017362622)
(1.9924558 -0.113755119 -0.00179508443)
(4.39525374 0.002343159 0.341036438)
(3.85803212 0.00585572756 0.526191586)
(3.27647165 0.00804457989 0.417404525)
(2.70009746 0.00918188251 0.264879682)
(2.30556178 0.00947734707 0.149999218)
(2.06433172 0.00889330278 0.0782886864)
(1.90782758 0.00725400241 0.0391657017)
(1.80431631 0.00435679539 0.0195621447)
(1.73796371 2.79565593e-05 0.0100384788)
(1.69616018 -0.00584415213 0.00548175033)
(1.67024424 -0.0133102431 0.00324011003)
(1.6551585 -0.0223803579 0.00199131992)
(1.64777442 -0.0330426429 0.00118534086)
(1.64596058 -0.0452733366 0.000617237974)
(1.64829214 -0.0590364439 0.000201027929)
(1.65391664 -0.0742773629 -0.000108405895)
(1.6624466 -0.090908191 -0.000342526537)
(1.67387869 -0.108780949 -0.000528109144)
(1.68852743 -0.127634826 -0.000687964443)
(1.70695668 -0.147029307 -0.000840857446)
(1.72989873 -0.166258276 -0.00100180562)
(1.75814389 -0.184250121 -0.00118133566)
(1.79237701 -0.199467356 -0.00138424854)
(1.83293699 -0.209835629 -0.00160839349)
(1.87948371 -0.212755823 -0.0018426702)
(1.93058892 -0.205285011 -0.00206493006)
(1.98331999 -0.184588168 -0.00223823181)
(2.03304501 -0.14878438 -0.00231722215)
(4.39518274 0.00162724347 0.341066221)
(3.85759355 0.00403189345 0.526277263)
(3.27537208 0.00541925746 0.417516792)
(2.69813308 0.00597205831 0.264987102)
(2.30264621 0.00581311322 0.150094303)
(2.06041056 0.00485681599 0.078377121)
(1.9028424 0.00291018003 0.0392514829)
(1.79821092 -0.000232585572 0.0196443784)
(1.73068178 -0.00474982135 0.0101154183)
(1.68764394 -0.0107709557 0.00555360656)
(1.6604387 -0.0183813769 0.00330789254)
(1.64400872 -0.0276416336 0.00205350242)
(1.63522816 -0.0386042097 0.00123845398)
(1.6319665 -0.0513224971 0.000659878953)
(1.63280605 -0.0658532056 0.000233458317)
(1.6369191 -0.0822530225 -8.66352807e-05)
(1.64397274 -0.100561996 -0.000333681633)
(1.65406423 -0.12077304 -0.000537165681)
(1.66767559 -0.14276994 -0.000723028835)
(1.68562865 -0.166242018 -0.000913322611)
(1.70902803 -0.190563739 -0.00112631674)
(1.73916692 -0.214636825 -0.00137531026)
(1.77735642 -0.236701831 -0.00166651302)
(1.82462818 -0.254148717 -0.00199636844)
(1.88125451 -0.263397216 -0.0023469693)
(1.94606422 -0.259988314 -0.00268145784)
(2.01557605 -0.239094795 -0.00293080248)
(2.08333987 -0.196828326 -0.00300845131)
(4.39511897 0.00105117439 0.341093643)
(3.85719746 0.00256619695 0.526355143)
(3.27437348 0.00331396999 0.417618089)
(2.69634136 0.00340240256 0.26508371)
(2.29997342 0.0028850274 0.150179581)
(2.05679083 0.0016421603 0.0784562727)
(1.89820023 -0.000528300388 0.0393279157)
(1.7924675 -0.00383210532 0.019717279)
(1.72375295 -0.00845151363 0.0101842491)
(1.67943926 -0.0145327757 0.00561921802)
(1.65085889 -0.0221940183 0.00336942022)
(1.63294542 -0.0315437997 0.00210780786)
(1.62255951 -0.0426978265 0.00128366198)
(1.61755421 -0.0557908393 0.000696066773)
(1.61650092 -0.0709849958 0.000260630974)
(1.61857598 -0.0884700221 -6.99018457e-05)
(1.62348003 -0.108449213 -0.000331410819)
(1.63139378 -0.131111921 -0.000556862245)
(1.64296249 -0.156569128 -0.000776537706)
(1.65929019 -0.184755291 -0.00101752856)
(1.68193144 -0.215274315 -0.00130361638)
(1.71284872 -0.247172506 -0.00165326943)
(1.75427763 -0.278626404 -0.00207561064)
(1.80840943 -0.30655577 -0.00256428667)
(1.87675973 -0.326229451 -0.00308693804)
(1.95910171 -0.331052347 -0.0035771984)
(2.05178398 -0.312907533 -0.00390263997)
(2.14610789 -0.264030552 -0.00392311378)
(4.39506189 0.000602323444 0.341118968)
(3.85684045 0.00142714523 0.526425995)
(3.273468 0.0016860241 0.41770943)
(2.6947099 0.00142684449 0.265170383)
(2.29752857 0.000650768795 0.150255677)
(2.05345851 -0.000783152911 0.0785263417)
(1.89389162 -0.00307906507 0.039395205)
(1.78708709 -0.00643894848 0.0197820114)
(1.71719552 -0.0110463492 0.010246573)
(1.67158418 -0.0170616293 0.00567870741)
(1.64156656 -0.0246313092 0.00342356141)
(1.62205388 -0.033906826 0.00215417979)
(1.60987445 -0.0450635001 0.00132177321)
(1.60284406 -0.0583187262 0.000726020982)
(1.59949619 -0.073946966 0.000281752514)
(1.59897711 -0.0922869307 -6.0514759e-05)
(1.60098028 -0.113737545 -0.000340053929)
(1.60572481 -0.138743068 -0.000594641143)
(1.6139784 -0.167739223 -0.000861123392)
(1.62710866 -0.201057772 -0.00117501154)
(1.64715722 -0.238753941 -0.00157034574)
(1.67690565 -0.28031624 -0.00207665312)
(1.71986249 -0.324209413 -0.00271168938)
(1.78003592 -0.367207532 -0.00346746646)
(1.86124992 -0.403528226 -0.00428282489)
(1.96566729 -0.423891619 -0.00501631358)
(2.09072568 -0.415030355 -0.00534912733)
(2.22569616 -0.361513855 -0.0050401429)
(4.39501135 0.000268420955 0.341142329)
(3.85652178 0.000584317921 0.526490146)
(3.27265423 0.000494030916 0.417791158)
(2.69323759 -1.10251792e-06 0.265247269)
(2.29531307 -0.000935304369 0.150322474)
(2.05042078 -0.00245939658 0.0785873497)
(1.88993509 -0.00477226664 0.0394542394)
(1.78210587 -0.00806720432 0.019839873)
(1.71106862 -0.0125253898 0.0103027152)
(1.66416575 -0.0183160549 0.00573138542)
(1.63268326 -0.0256066422 0.003470166)
(1.6114941 -0.0345830156 0.00219336773)
(1.59737586 -0.0454725886 0.0013533363)
(1.5880819 -0.058569213 0.000749654601)
(1.58207288 -0.0742559795 0.000295663963)
(1.57841732 -0.0930245059 -6.10741206e-05)
(1.57673774 -0.115489095 -0.000364468941)
(1.57721044 -0.142397146 -0.000659340258)
(1.58063063 -0.1746062 -0.000992961548)
(1.58853561 -0.213020712 -0.00141552353)
(1.60339816 -0.258439662 -0.00198084693)
(1.62887635 -0.311244116 -0.00274312327)
(1.67006038 -0.370815852 -0.00374718425)
(1.73355693 -0.434540253 -0.00500523062)
(1.82709509 -0.496259133 -0.00644875836)
(1.95796974 -0.543994513 -0.00784626087)
(2.12839083 -0.557650726 -0.00847156385)
(2.32944308 -0.507321786 -0.00771710699)
(4.39496781 3.72286942e-05 0.341163977)
(3.85624339 7.00041015e-06 0.526547871)
(3.27193564 -0.000305623543 0.41786305)
(2.69193132 -0.000931947399 0.265314205)
(2.29334052 -0.00192620461 0.150380027)
(2.04770212 -0.00343830102 0.0786399945)
(1.88637186 -0.00565420697 0.0395060297)
(1.77758767 -0.00875336599 0.0198912024)
(1.70546429 -0.0129091045 0.0103522435)
(1.65731382 -0.0182914464 0.00577689504)
(1.62438515 -0.025078539 0.00350967833)
(1.60150001 -0.0334784298 0.00222602537)
(1.58536729 -0.0437565869 0.00137877381)
(1.57365153 -0.0562662538 0.000766826542)
(1.56470131 -0.0714805014 0.000301485914)
(1.55744915 -0.0900274241 -7.36088918e-05)
(1.55136147 -0.112729775 -0.000408815772)
(1.54645084 -0.140654338 -0.000759495914)
(1.54337597 -0.175146098 -0.00118978522)
(1.54363873 -0.217842949 -0.00177579097)
(1.54992409 -0.270618295 -0.00260963265)
(1.56661885 -0.335355485 -0.00379869329)
(1.60051368 -0.413367859 -0.00545617401)
(1.66157053 -0.504130225 -0.00767008121)
(1.76352013 -0.602807729 -0.0104654848)
(1.92293448 -0.695647054 -0.0136268671)
(2.15525913 -0.754087082 -0.0161300472)
(2.46644464 -0.718185121 -0.016289164)
(4.39493171 -0.00010328281 0.341183866)
(3.85600729 -0.000337255955 0.526598631)
(3.27131828 -0.000760930089 0.417924809)
(2.69080409 -0.00142223183 0.265371245)
(2.2916334 -0.00238421112 0.150428866)
(2.04533916 -0.00378548344 0.0786849689)
(1.88325813 -0.00579131073 0.0395507914)
(1.77361469 -0.00856153779 0.0199356888)
(1.70049914 -0.0122543789 0.0103946423)
(1.65119063 -0.0170308369 0.00581522636)
(1.61689376 -0.0230669106 0.00354255174)
(1.59236995 -0.0305765306 0.0022526795)
(1.57424527 -0.0398412529 0.00139849265)
(1.56007249 -0.0512444031 0.00077781212)
(1.54805123 -0.0653116722 0.000299302867)
(1.5369179 -0.0827625335 -9.84071857e-05)
(1.5258862 -0.104578246 -0.000474450742)
(1.51465214 -0.132098953 -0.000899596914)
(1.50350235 -0.167138824 -0.00146473955)