/*--------------------------------*- C++ -*----------------------------------*\
| =========                 |                                                 |
| \\      /  F ield         | foam-extend: Open Source CFD                    |
|  \\    /   O peration     | Version:     4.1                                |
|   \\  /    A nd           | Web:         http://www.foam-extend.org         |
|    \\/     M anipulation  |                                                 |
\*---------------------------------------------------------------------------*/
FoamFile
{
    version     2.0;
    format      ascii;
    class       volVectorField;
    location    "0.05";
    object      U_0;
}
// * * * * * * * * * * * * * * * * * * * * * * * * * * * * * * * * * * * * * //

dimensions      [0 1 -1 0 0 0 0];

internalField   nonuniform List<vector> 
35840
(
(3.94546034 0.268310115 0.261671823)
(3.20839303 0.37225758 0.357931215)
(2.4366151 0.268661878 0.252058719)
(1.7089253 0.159886647 0.144836872)
(1.27116734 0.0918428783 0.0802856446)
(1.0179591 0.0545702021 0.0473108078)
(0.847973905 0.0333059614 0.0304406301)
(0.731961653 0.0199530014 0.0209722184)
(0.655117038 0.0113689944 0.0153686266)
(0.604249526 0.00590347983 0.0118486578)
(0.570470671 0.00244667797 0.00938013059)
(0.548276907 0.000311594561 0.00747188266)
(0.534006882 -0.000937980384 0.00592041306)
(0.525151275 -0.00160257031 0.00463938232)
(0.519982774 -0.00189011021 0.00358736174)
(0.517298885 -0.00194388851 0.00273493478)
(0.51626757 -0.00186187144 0.00205279254)
(0.516316304 -0.00170714075 0.00151183084)
(0.517050143 -0.00151737949 0.00108548817)
(0.518193336 -0.0013137506 0.000751284743)
(0.519549728 -0.00110766727 0.00049047179)
(0.520977795 -0.000905051646 0.000287238796)
(0.522374198 -0.000708298429 0.000128727874)
(0.52366154 -0.000517634311 5.35147738e-06)
(0.52477827 -0.000332678611 -8.98206167e-05)
(0.525676002 -0.000153403413 -0.000161637607)
(0.526315123 1.96658641e-05 -0.000213282609)
(0.526663281 0.000184730903 -0.000247011266)
(4.52659036 0.40975107 0.330904045)
(4.20245519 0.638525278 0.510224825)
(3.63490127 0.547551117 0.411959023)
(2.92668421 0.399202494 0.267447181)
(2.38145508 0.276798566 0.158170572)
(2.00898155 0.189451239 0.0922085881)
(1.7410587 0.128092703 0.0562660528)
(1.54834984 0.0840262372 0.0366996402)
(1.41447912 0.052633091 0.0256699158)
(1.32279601 0.0308675777 0.0190888872)
(1.26031778 0.0161799917 0.0147513475)
(1.21820402 0.00657516 0.011589989)
(1.19028489 0.000553515592 0.00913470517)
(1.17218716 -0.00300963882 0.00717233005)
(1.16085161 -0.00493559874 0.00559691879)
(1.15415152 -0.00580534637 0.00433972401)
(1.15061144 -0.00601983633 0.00334092674)
(1.14921346 -0.00584378038 0.0025481184)
(1.14925201 -0.00544287169 0.00191900714)
(1.15022865 -0.00491678872 0.00141967403)
(1.15178492 -0.00432344651 0.00102256545)
(1.15365732 -0.00369522271 0.000704936762)
(1.1556473 -0.00304849882 0.00044809417)
(1.15760074 -0.00238986972 0.000238089807)
(1.15939328 -0.00172179495 6.53392726e-05)
(1.16092023 -0.00104677076 -7.69011014e-05)
(1.162095 -0.000369280719 -0.00019352276)
(1.16284864 0.000302848322 -0.00028747013)
(4.44846082 0.221604265 0.337509717)
(4.0831723 0.435832784 0.520374152)
(3.65742909 0.46575113 0.423873228)
(3.12700877 0.417576956 0.283396835)
(2.69467095 0.343812575 0.173675455)
(2.37985827 0.267378726 0.102894357)
(2.14037199 0.19862947 0.0621549187)
(1.95924932 0.140862841 0.0396714698)
(1.82738942 0.0948039076 0.0272077748)
(1.732997 0.059876205 0.019966759)
(1.66586592 0.0345739882 0.0153131825)
(1.61866216 0.0170233447 0.0119814345)
(1.58595667 0.00537726361 0.00941628966)
(1.56369734 -0.0019829022 0.00737318871)
(1.54889873 -0.00635782275 0.00574189532)
(1.53940229 -0.00872616585 0.00445295577)
(1.53365974 -0.00978874275 0.0034412494)
(1.53057014 -0.0100231016 0.00264692131)
(1.5293517 -0.00973809171 0.00202099077)
(1.52943619 -0.00912691529 0.00152594946)
(1.53040238 -0.00830814901 0.00113182254)
(1.53193285 -0.00735149047 0.000814632889)
(1.53378074 -0.00629474903 0.000555749796)
(1.53574727 -0.00515659331 0.000341452772)
(1.53766682 -0.00394719307 0.000162546995)
(1.53939764 -0.00267604208 1.25483152e-05)
(1.54081897 -0.00135636434 -0.000113547078)
(1.54183274 -6.57128567e-06 -0.000218909769)
(4.42037643 0.123740622 0.337583869)
(3.97534472 0.283969676 0.518494889)
(3.52519836 0.345621835 0.416726142)
(3.03801366 0.345747172 0.27440228)
(2.67439338 0.313359563 0.165433326)
(2.42450753 0.264652467 0.0950401134)
(2.23760081 0.210786038 0.0541713031)
(2.09533546 0.159016434 0.0318550696)
(1.99003126 0.113530833 0.0200922946)
(1.91254853 0.0762574015 0.0138951087)
(1.85535001 0.0474287598 0.0103856745)
(1.81334975 0.026216649 0.00812972389)
(1.78284363 0.0112964052 0.00648110638)
(1.76100321 0.00124432377 0.00516832621)
(1.74567599 -0.00522556566 0.00409819716)
(1.73521484 -0.00916070922 0.00323442781)
(1.72837716 -0.0113528322 0.00254331022)
(1.72423204 -0.0123665852 0.00199119897)
(1.72208344 -0.0125841286 0.00154924966)
(1.72140523 -0.0122540739 0.0011940649)
(1.72178625 -0.0115367449 0.000906089394)
(1.72290298 -0.0105323837 0.00066913832)
(1.72449265 -0.00929905168 0.000471549313)
(1.72633419 -0.00786924525 0.000305429976)
(1.72823537 -0.00626448957 0.000165400133)
(1.73002837 -0.00450586779 4.72105591e-05)
(1.73156788 -0.00261965208 -5.28135025e-05)
(1.73273258 -0.000638898201 -0.000137377411)
(4.41238697 0.0840866438 0.338260299)
(3.92705861 0.203247431 0.52049655)
(3.43202472 0.260986157 0.415354425)
(2.92914038 0.274523639 0.267993837)
(2.58001802 0.262389665 0.156248498)
(2.3591292 0.234449852 0.0852322245)
(2.20482219 0.197650754 0.044620344)
(2.09312521 0.157925016 0.022926395)
(2.01346108 0.119754959 0.0120748067)
(1.95580013 0.0859977668 0.00698474659)
(1.91296359 0.0580129271 0.004645537)
(1.88078712 0.0360040838 0.00351208649)
(1.85662738 0.0194425873 0.00286237769)
(1.83863535 0.00744459902 0.00238549298)
(1.8254648 -0.000952496281 0.00198461376)
(1.81608507 -0.00662466858 0.00164250328)
(1.80968023 -0.0102889029 0.00135092722)
(1.805611 -0.0124915722 0.00110167463)
(1.80336474 -0.013627854 0.000889537584)
(1.8025297 -0.0139713029 0.000709070295)
(1.80276537 -0.0137079259 0.00055347805)
(1.80378474 -0.0129616333 0.000417092588)
(1.80534012 -0.0118098925 0.000297326388)
(1.80720828 -0.010301393 0.000193552651)
(1.80918574 -0.00847323145 0.000104837149)
(1.81108937 -0.00636280258 2.96694346e-05)
(1.81275697 -0.00401371003 -3.38096328e-05)
(1.81404956 -0.00147774975 -8.75305523e-05)
(4.40854238 0.0613515688 0.338960958)
(3.90220315 0.150337044 0.522519522)
(3.37698859 0.199814045 0.416052885)
(2.8526575 0.218884941 0.265530442)
(2.49798797 0.21814621 0.151405902)
(2.28311915 0.203619486 0.079479321)
(2.14162538 0.179770128 0.0387847063)
(2.04606967 0.150886091 0.0173572961)
(1.98293765 0.120686651 0.00697859871)
(1.94022822 0.0919785939 0.00248750034)
(1.90984219 0.0665384223 0.000799132562)
(1.88741794 0.045194119 0.000316992554)
(1.87051908 0.0280514648 0.000278530481)
(1.85771349 0.0147612418 0.000340107723)
(1.84812415 0.004755266 0.000389724986)
(1.84115062 -0.00257804901 0.000412077446)
(1.83633557 -0.00779390752 0.000408860751)
(1.83331065 -0.0113534174 0.000384044065)
(1.83176321 -0.0136166648 0.000345225358)
(1.83141703 -0.0148526125 0.000298252687)
(1.83202764 -0.0152551815 0.000244529979)
(1.83336861 -0.0149592891 0.000186115352)
(1.83522464 -0.0140548437 0.000127976658)
(1.83738373 -0.012604336 7.46304592e-05)
(1.83964171 -0.0106607956 2.81837723e-05)
(1.84180736 -0.0082791317 -1.09574938e-05)
(1.84370692 -0.00552195619 -4.33425367e-05)
(1.84518776 -0.00246226592 -7.02456435e-05)
(4.40630575 0.0465015306 0.339499338)
(3.8878745 0.114764597 0.524091785)
(3.34372098 0.156451916 0.417344605)
(2.80250422 0.177227428 0.265318281)
(2.4387267 0.182850143 0.149765809)
(2.22184116 0.176811954 0.0771045857)
(2.08363367 0.162028916 0.0361844052)
(1.99512129 0.141507865 0.0147780082)
(1.94102779 0.118112558 0.00455501558)
(1.90779664 0.0942871296 0.000293599166)
(1.88629327 0.0718418746 -0.00113189696)
(1.87158282 0.0518864761 -0.00133860339)
(1.86102238 0.0349200374 -0.00110554548)
(1.85321498 0.0209914754 -0.000792719272)
(1.84745011 0.00987438935 -0.000522711978)
(1.84334443 0.00122039142 -0.000314152116)
(1.84066181 -0.00534301528 -0.00016393486)
(1.83923075 -0.0101609293 -6.46038757e-05)
(1.83889619 -0.013527667 -4.55869866e-06)
(1.83950626 -0.0156806504 2.59088001e-05)
(1.84090651 -0.0168004787 3.16270549e-05)
(1.84293344 -0.0170155828 1.96156046e-05)
(1.84540485 -0.01641575 -1.45071589e-07)
(1.84812384 -0.0150698307 -2.09201137e-05)
(1.85088883 -0.0130422556 -3.93421336e-05)
(1.85350302 -0.010402462 -5.41675701e-05)
(1.85578205 -0.007230862 -6.52753167e-05)
(1.85755999 -0.00362222529 -7.34964506e-05)
(4.40492972 0.0363311903 0.339924453)
(3.87900382 0.0901046814 0.525343657)
(3.32244659 0.124988602 0.418669679)
(2.76884816 0.145259615 0.265910783)
(2.39680288 0.154157459 0.149532195)
(2.17603663 0.153477265 0.0763943422)
(2.03757288 0.144963293 0.0353026524)
(1.9517233 0.13064163 0.0138680238)
(1.90227394 0.112657571 0.00367867194)
(1.8746934 0.0930538864 -0.000522087347)
(1.85907194 0.0735193927 -0.0018763676)
(1.84993485 0.0552472241 -0.00200565633)
(1.84433373 0.0389441802 -0.00169121638)
(1.84074246 0.0249155376 -0.00129706295)
(1.83844993 0.0131900502 -0.000950112125)
(1.83714913 0.00363841564 -0.000671733827)
(1.83671343 -0.00394548015 -0.000459911981)
(1.83709044 -0.00978860555 -0.000307083661)
(1.83823243 -0.0141061814 -0.000202410764)
(1.8400841 -0.0170851282 -0.000136857286)
(1.84256324 -0.0188720581 -0.00010380641)
(1.84555614 -0.0195712598 -9.26844632e-05)
(1.8489058 -0.0192585066 -9.15309957e-05)
(1.85242719 -0.0179991043 -9.35036262e-05)
(1.85591916 -0.0158608473 -9.51133369e-05)
(1.85917651 -0.0129218989 -9.49937025e-05)
(1.86200082 -0.00927729354 -9.27604589e-05)
(1.86420948 -0.00504301812 -8.8945824e-05)
(4.40401424 0.0289761844 0.340256476)
(3.87314391 0.0721051129 0.526306939)
(3.30817618 0.101258901 0.419780793)
(2.74559301 0.120039393 0.2666422)
(2.36680031 0.130351502 0.149787065)
(2.14205469 0.132904325 0.0763631759)
(2.00208496 0.128594756 0.0351664504)
(1.91686468 0.118731745 0.0137058622)
(1.86966624 0.104899592 0.00351276651)
(1.84536879 0.088770949 -0.000689728895)
(1.8335401 0.0718524188 -0.00204846043)
(1.82829405 0.0553107405 -0.00218226012)
(1.82640168 0.0399376424 -0.00186880642)
(1.82617055 0.0261862957 -0.00147064882)
(1.82681991 0.0142587771 -0.00111505725)
(1.82804154 0.00418822161 -0.000824786212)
(1.8297535 -0.00409573609 -0.000598575121)
(1.83196196 -0.0107132128 -0.000430557003)
(1.83469063 -0.0157984661 -0.000312002466)
(1.83794806 -0.0194758898 -0.000236233817)
(1.84170739 -0.0218412848 -0.000194640184)
(1.84588271 -0.0229599446 -0.00017341425)
(1.85033363 -0.0228816217 -0.00016160259)
(1.85487971 -0.0216571028 -0.000153084085)
(1.85931386 -0.0193474332 -0.000144852283)
(1.86341584 -0.0160319706 -0.000135669054)
(1.86696579 -0.0118160479 -0.000125076741)
(1.86975649 -0.00683595414 -0.000113391805)
(4.40337271 0.023421414 0.340511604)
(3.86908864 0.0584456083 0.527039219)
(3.29824301 0.0828466772 0.420663177)
(2.72908297 0.0997543536 0.267319687)
(2.34492389 0.110326428 0.150180302)
(2.11656639 0.114631804 0.076577747)
(1.9746842 0.113002983 0.0353105913)
(1.88910397 0.106242117 0.0138264245)
(1.8428119 0.0955063737 0.00361786228)
(1.8203301 0.0821473472 -0.000605931163)
(1.81088495 0.0674715773 -0.0019929903)
(1.80829661 0.0525609835 -0.00215789713)
(1.80911153 0.0382156164 -0.00187347135)
(1.81148182 0.0249613212 -0.00149904636)
(1.81453738 0.0131059878 -0.00116071702)
(1.81793786 0.00279354732 -0.000881569324)
(1.82160899 -0.00594300314 -0.000660983192)
(1.82558149 -0.0131330559 -0.000495329101)
(1.82992208 -0.0188326172 -0.000379135047)
(1.83468303 -0.0230961346 -0.000306297865)
(1.8398678 -0.0259569719 -0.000264709708)
(1.84540376 -0.0274303805 -0.000239859864)
(1.85115755 -0.0275300605 -0.000222871279)
(1.85694483 -0.0262801202 -0.000208601053)
(1.86254347 -0.0237233535 -0.000194681351)
(1.86770799 -0.0199314821 -0.000180022337)
(1.87218525 -0.0150149437 -0.000164062254)
(1.8757313 -0.0091295436 -0.000146919014)
(4.40290776 0.0190873716 0.340706926)
(3.86618066 0.0477542188 0.527597663)
(3.29110354 0.0681944183 0.421353937)
(2.71705028 0.0831310756 0.267893515)
(2.32864266 0.0932736113 0.150575404)
(2.09714605 0.098336332 0.0768552744)
(1.95328611 0.0982985601 0.0355369145)
(1.86685017 0.0936148439 0.0140306737)
(1.82067384 0.0851240276 0.00380334993)
(1.79906746 0.0739100497 -0.000446139662)
(1.79103983 0.0610852642 -0.00186617186)
(1.7902083 0.0476203056 -0.00206728776)
(1.79294912 0.0342791136 -0.0018176228)
(1.79728432 0.0216093468 -0.00147320415)
(1.80226023 0.0099728537 -0.00115909023)
(1.80749876 -0.000417648746 -0.000897790727)
(1.81291114 -0.00945424664 -0.000690265354)
(1.81853991 -0.0170910346 -0.000534945335)
(1.82447486 -0.0233093038 -0.000429500389)
(1.8307985 -0.0280890019 -0.000365455413)
(1.83752066 -0.0313943763 -0.000326880286)
(1.84457598 -0.0331836582 -0.00030178731)
(1.85182954 -0.0334235335 -0.000282848409)
(1.85908408 -0.032097516 -0.000266056003)
(1.86609121 -0.0292170419 -0.000249398458)
(1.87256632 -0.0248356854 -0.00023180918)
(1.87820677 -0.0190626415 -0.000212549403)
(1.88271415 -0.0120724133 -0.000191503326)
(4.40256083 0.0156166966 0.340856879)
(3.86402951 0.0391681182 0.528026567)
(3.28581939 0.0562735143 0.421893392)
(2.7080548 0.069282302 0.268362396)
(2.31626567 0.0786085716 0.150926693)
(2.08208442 0.0837805311 0.0771266887)
(1.93632547 0.0845708694 0.0357700841)
(1.84879436 0.0812043792 0.0142436673)
(1.80225899 0.0742869269 0.00399729628)
(1.78091119 0.0646849784 -0.000277412476)
(1.77362598 0.0533344437 -0.00172900245)
(1.7738852 0.041087533 -0.00196432494)
(1.77794056 0.0286481405 -0.0017472176)
(1.78371357 0.0165503491 -0.00143152037)
(1.79018699 0.00517245845 -0.00114108922)
(1.79694454 -0.00523560155 -0.000898615595)
(1.80387977 -0.0145133807 -0.000706364434)
(1.81103798 -0.0225515838 -0.000566153253)
(1.81853162 -0.0292603843 -0.000475523384)
(1.82644868 -0.0345430835 -0.000420997061)
(1.83480229 -0.038292351 -0.000387036632)
(1.84352998 -0.0404030155 -0.000364015845)
(1.85248949 -0.0407809379 -0.000345929009)
(1.86146165 -0.0393528374 -0.000329540582)
(1.8701592 -0.0360828848 -0.00031292848)
(1.87824078 -0.0309929432 -0.000294810262)
(1.8853321 -0.024182351 -0.000274135654)
(1.89105541 -0.0158429889 -0.000250493689)
(4.40229509 0.0127796281 0.340972863)
(3.86239264 0.0321303631 0.528359607)
(3.2817995 0.046399977 0.422317474)
(2.70115907 0.0575898769 0.268741916)
(2.30664601 0.0659010943 0.15122588)
(2.07017367 0.0707721165 0.0773702011)
(1.92264872 0.0718660617 0.0359847486)
(1.83392122 0.0692620619 0.0144404825)
(1.7867412 0.0633978789 0.00417609445)
(1.76524077 0.054965987 -0.000121942933)
(1.75821795 0.044747879 -0.00160197037)
(1.75906688 0.033480462 -0.00186721064)
(1.76395275 0.0217942217 -0.00167838925)
(1.77072965 0.010185081 -0.00138776925)
(1.77833419 -0.000977998687 -0.0011185034)
(1.78632067 -0.0114291216 -0.000893777208)
(1.79456458 -0.0209711797 -0.000718313324)
(1.80312368 -0.0294411664 -0.000596452535)
(1.81212124 -0.0366808161 -0.000520979151)
(1.82164372 -0.0425187054 -0.000475582018)
(1.83171357 -0.0467757335 -0.000447755864)
(1.84227103 -0.0492730775 -0.000429216649)
(1.85316378 -0.0498387331 -0.000415127849)
(1.86414369 -0.0483227207 -0.000402486568)
(1.87487051 -0.0446210245 -0.000389135252)
(1.88492427 -0.0387048779 -0.000373308149)
(1.89382994 -0.0306507813 -0.000353455045)
(1.90109588 -0.0206649178 -0.000328738361)
(4.40208647 0.0104237065 0.341063715)
(3.86111358 0.0262706803 0.528622092)
(3.27865919 0.0381083719 0.422655045)
(2.69573842 0.0476152982 0.269050227)
(2.29899494 0.0548280589 0.151477312)
(2.06055484 0.0591494688 0.0775819025)
(1.91140666 0.0601945481 0.0361745589)
(1.82145425 0.0579549539 0.0146148554)
(1.77345708 0.0527485948 0.00433393905)
(1.75152455 0.0451297221 1.49009622e-05)
(1.74441428 0.035747048 -0.00148974855)
(1.74546773 0.0252284949 -0.0017802967)
(1.7507971 0.0141224504 -0.0016155416)
(1.75821735 0.00287146045 -0.00134600971)
(1.76663384 -0.00818121992 -0.00109509908)
(1.77557844 -0.0187676311 -0.000887309074)
(1.78492494 -0.0286648003 -0.00073090023)
(1.7947492 -0.037663996 -0.000627757769)
(1.80517344 -0.0455431979 -0.000565449897)
(1.81629875 -0.0520625276 -0.000529793904)
(1.82816448 -0.0569680224 -0.000510038644)
(1.84072006 -0.0599928393 -0.000499257752)
(1.85380557 -0.0608663529 -0.000493107959)
(1.86713943 -0.0593359247 -0.000488415406)
(1.88031403 -0.0552003086 -0.00048241921)
(1.8928048 -0.0483522076 -0.000472599967)
(1.90399747 -0.0388242822 -0.000456628632)
(1.9132379 -0.0268296493 -0.000432942456)
(4.40191873 0.00844494985 0.341136106)
(3.86008814 0.0213362951 0.528832746)
(3.27614138 0.031075452 0.422928174)
(2.69136848 0.0390439719 0.269303453)
(2.29276316 0.0451460592 0.151688903)
(2.05261261 0.0487787099 0.0777643735)
(1.90197288 0.0495463302 0.036340076)
(1.81080104 0.0473924797 0.014766999)
(1.76188036 0.0425503291 0.00447116105)
(1.73931851 0.0354638125 0.000133814721)
(1.73185733 0.0266669412 -0.0013915163)
(1.73281137 0.0166835417 -0.00170348728)
(1.73827024 0.00597628153 -0.00155859717)
(1.74602496 -0.00507457464 -0.00130692589)
(1.75496527 -0.016160884 -0.00107175156)
(1.76460869 -0.0270221463 -0.000881670979)
(1.77485503 -0.0374192707 -0.000745315632)
(1.78578327 -0.0471041456 -0.00065818801)
(1.7975342 -0.0558023893 -0.000608297499)
(1.81024086 -0.063211672 -0.000583675224)
(1.82397536 -0.0689958508 -0.000575001784)
(1.83871034 -0.0727833617 -0.000576212452)
(1.85428822 -0.0741793147 -0.000582967699)
(1.87039489 -0.072793635 -0.000591552226)
(1.88654311 -0.068286419 -0.000598319537)
(1.90207336 -0.0604292069 -0.00059961423)
(1.9161814 -0.0491757446 -0.000591865491)
(1.92798172 -0.0347298061 -0.000572256673)
(4.40178076 0.0067707697 0.341195014)
(3.85924548 0.0171508338 0.529005287)
(3.27407073 0.0250728729 0.423153414)
(2.68775637 0.0316480423 0.269514724)
(2.28756431 0.0366718117 0.151868604)
(2.04590389 0.039551685 0.0779218893)
(1.89388425 0.039903791 0.0364838931)
(1.80151096 0.0376493551 0.0148990272)
(1.75159635 0.0329611311 0.00459010417)
(1.72825877 0.0261930136 0.000237382574)
(1.72023951 0.0177769833 -0.00130539102)
(1.72085012 0.00813753748 -0.00163494488)
(1.72617069 -0.00234904106 -0.00150650065)
(1.73398648 -0.0133683737 -0.00126926389)
(1.7431715 -0.0246529953 -0.00104948042)
(1.75326593 -0.0359588755 -0.000878461832)
(1.76418353 -0.0470395063 -0.000759606151)
(1.77602207 -0.0576203747 -0.000686326762)
(1.7889661 -0.0673898541 -0.000649225918)
(1.80320328 -0.0759864094 -0.000637881192)
(1.81886291 -0.0829841246 -0.000644287508)
(1.83596621 -0.087888618 -0.000662714911)
(1.85437903 -0.0901490313 -0.000688549158)
(1.87376613 -0.089191226 -0.000717300306)
(1.89355406 -0.0844769936 -0.000744094173)
(1.91291517 -0.0755907648 -0.000763617648)
(1.93078902 -0.062348107 -0.000770294624)
(1.94596007 -0.0449095517 -0.000759139718)
(4.40166476 0.00534957151 0.341244103)
(3.85853648 0.0135887769 0.529149692)
(3.27232596 0.0199364361 0.423343102)
(2.68469801 0.0252604727 0.269694339)
(2.28312488 0.0292671362 0.152023162)
(2.04010917 0.0313837681 0.0780585041)
(1.8867995 0.0312505895 0.0366088223)
(1.7932436 0.028781671 0.0150136875)
(1.74228381 0.0241048642 0.00469374135)
(1.71805543 0.0174978002 0.000328088489)
(1.70931143 0.0092993243 -0.00122920851)
(1.70937137 -0.000160219878 -0.00157308788)
(1.71431708 -0.0105895391 -0.00145745954)
(1.72192683 -0.0217403615 -0.00123300573)
(1.73108698 -0.0333910935 -0.00103014864)
(1.74136314 -0.0453238214 -0.000876654659)
(1.75268324 -0.0572977443 -0.000771766237)
(1.76519314 -0.0690338551 -0.00071158804)
(1.77914556 -0.0801978015 -0.000688454841)
(1.79481294 -0.0903739011 -0.000693697223)
(1.81241803 -0.0990426047 -0.000720130056)
(1.83207042 -0.105568818 -0.000762213476)
(1.85369824 -0.109208155 -0.000814945266)
(1.87697453 -0.109141117 -0.000872913831)
(1.90124661 -0.10454584 -0.000929637786)
(1.92548716 -0.0947175426 -0.000977372796)
(1.94829487 -0.0792330664 -0.00100727647)
(1.96798165 -0.0581417867 -0.00101055024)
(4.40156522 0.00414402427 0.341286004)
(3.85792664 0.010559187 0.529273139)
(3.27082194 0.0155458936 0.42350624)
(2.68204954 0.0197570436 0.26984996)
(2.27925047 0.0228278669 0.152157798)
(2.03499802 0.0242107592 0.0781777877)
(1.88046911 0.0235748795 0.0367179685)
(1.78574696 0.0208343428 0.015114073)
(1.73370241 0.0160817488 0.00478480613)
(1.70848938 0.00952723941 0.000408093692)
(1.69888029 0.00142427615 -0.00116107203)
(1.69820362 -0.0079863524 -0.00151619484)
(1.70254481 -0.0184943428 -0.00141096987)
(1.70968496 -0.0299177356 -0.0012004131)
(1.71853967 -0.0420885216 -0.00101381612)
(1.72868408 -0.0548260632 -0.000873724266)
(1.74008718 -0.0679191139 -0.000780999111)
(1.75296349 -0.0811082776 -0.000733982724)
(1.76766242 -0.094054356 -0.000727166591)
(1.78457921 -0.106301069 -0.000753245049)
(1.8040796 -0.117239545 -0.000805825011)
(1.82642135 -0.126080648 -0.00087963131)
(1.85166056 -0.131845932 -0.0009694089)
(1.87953865 -0.133393166 -0.00106875361)
(1.90935832 -0.12949697 -0.00116907949)
(1.93987376 -0.119006079 -0.00125904882)
(1.9692394 -0.101087869 -0.00132446151)
(1.99508845 -0.075547548 -0.00134978971)
(4.40147824 0.00312651519 0.341322603)
(3.85739162 0.00799522439 0.529380741)
(3.26949872 0.0118124209 0.423648943)
(2.67970923 0.0150449902 0.26998666)
(2.27580262 0.0172754215 0.152276328)
(2.03040575 0.0179834108 0.0782829897)
(1.87471455 0.0168669363 0.0368144256)
(1.77884112 0.0138430741 0.0152029901)
(1.72567896 0.00897411718 0.00486545517)
(1.69940402 0.00240918796 0.00047953209)
(1.68880188 -0.00567781704 -0.00109936661)
(1.68721323 -0.015129222 -0.00146312967)
(1.69071971 -0.025811041 -0.00136883223)
(1.69712748 -0.0376115788 -0.00117256426)
(1.70535725 -0.0504240258 -0.000998374191)
(1.71500896 -0.0641251126 -0.000868805947)
(1.72610687 -0.0785616092 -0.000787385525)
(1.73895379 -0.093520654 -0.00075487671)
(1.75402533 -0.108686792 -0.000767697359)
(1.77188483 -0.123591096 -0.000819998788)
(1.79310525 -0.137554967 -0.000906484292)
(1.81817871 -0.149635139 -0.00102259604)
(1.84739408 -0.158583414 -0.00116316279)
(1.88067165 -0.162844433 -0.0013207582)
(1.91735717 -0.160626917 -0.00148386205)
(1.95600467 -0.150094313 -0.00163558281)
(1.99421067 -0.12971469 -0.00175260555)
(2.02863352 -0.0987898187 -0.00180765861)
(4.40140125 0.00227612258 0.341355347)
(3.8569152 0.00584669348 0.529476256)
(3.26831557 0.00866973858 0.423775372)
(2.67760702 0.0110546692 0.27010785)
(2.27268593 0.0125492469 0.152381611)
(2.02621921 0.0126618335 0.0783766799)
(1.86941359 0.0111174345 0.0369005684)
(1.77240148 0.00783592985 0.0152823687)
(1.71809739 0.00285117872 0.00493765554)
(1.69069104 -0.00374418953 0.000543693466)
(1.67898043 -0.0118491831 -0.0010426272)
(1.67630422 -0.0213805445 -0.0014148871)
(1.67875595 -0.0322795816 -0.00133270121)
(1.68414486 -0.044508452 -0.00114799788)
(1.69139454 -0.0580342738 -0.000982744707)
(1.70013656 -0.0728171997 -0.000862251308)
(1.71045695 -0.0887910883 -0.000792581456)
(1.72276019 -0.105825311 -0.000776939747)
(1.73767581 -0.123672418 -0.000813874792)
(1.75598389 -0.14189992 -0.000899523225)
(1.77854376 -0.159805468 -0.00103046984)
(1.80619947 -0.176319729 -0.00120373064)
(1.83963162 -0.189910652 -0.00141489173)
(1.87912909 -0.198519397 -0.00165552233)
(1.92426552 -0.199582616 -0.00190975283)
(1.97350201 -0.190227065 -0.00215142363)
(2.0237863 -0.167735587 -0.00233975979)
(2.07038905 -0.130404111 -0.00242505511)
(4.4013326 0.00157637143 0.341385272)
(3.85648697 0.00407404966 0.529562364)
(3.26724602 0.00606598599 0.423888528)
(2.67569775 0.00773131321 0.270216137)
(2.26983925 0.00860039646 0.152475785)
(2.02236587 0.00821233619 0.078460711)
(1.86448763 0.00631684058 0.0369779178)
(1.76635247 0.00283412327 0.0153535349)
(1.7108886 -0.00222964395 0.00500218992)
(1.68229249 -0.00883391923 0.00060179951)
(1.6693632 -0.0169400537 -0.000991082551)
(1.66543798 -0.0265334959 -0.00137319715)
(1.6666118 -0.0376300073 -0.00130191967)
(1.67067662 -0.0502695096 -0.00112523439)
(1.67655924 -0.0645111266 -0.000967239674)
(1.68391618 -0.0804227431 -0.000855659567)
(1.69289041 -0.0980578088 -0.000799308389)
(1.70399118 -0.117414909 -0.000804146371)
(1.71801996 -0.13837785 -0.000871567359)
(1.73601858 -0.160629111 -0.0010008015)
(1.75922094 -0.183530118 -0.00119176737)
(1.78897299 -0.205965333 -0.0014446073)
(1.82657501 -0.226157923 -0.00175685214)
(1.87299213 -0.241487688 -0.00211920706)
(1.92837854 -0.248384685 -0.0025092776)
(1.99139959 -0.242442288 -0.00288595323)
(2.05837797 -0.218957445 -0.00317491616)
(2.12268032 -0.17426851 -0.00328199127)
(4.40127124 0.0010135569 0.341412998)
(3.85610056 0.00264426277 0.529640786)
(3.26627415 0.00395747307 0.423990452)
(2.67395489 0.00502833516 0.270313347)
(2.26722714 0.00538620068 0.152560341)
(2.01880513 0.00460354285 0.0785362968)
(1.85989677 0.0024519458 0.037047332)
(1.76066094 -0.00115040248 0.0154170076)
(1.70402864 -0.00622424641 0.00505986409)
(1.67419706 -0.0127723756 0.000654342584)
(1.65995441 -0.0208098748 -0.000946205541)
(1.65463618 -0.030386191 -0.00133821465)
(1.65430782 -0.0415874682 -0.001274674)
(1.65673951 -0.0545380142 -0.0011042714)
(1.66084601 -0.0694036496 -0.000953043264)
(1.66628974 -0.0863811149 -0.000851373855)
(1.67325086 -0.105679238 -0.000811209234)
(1.6823277 -0.127482534 -0.000842059029)
(1.69449109 -0.151889551 -0.000949557156)
(1.71107169 -0.17881303 -0.0011381392)
(1.73375971 -0.207825282 -0.00141379047)
(1.76457516 -0.237931217 -0.00178277521)
(1.80574275 -0.267258038 -0.00224684053)
(1.85937649 -0.292673844 -0.00279538916)
(1.92684247 -0.309407597 -0.00339284399)
(2.00768429 -0.310867001 -0.00396882394)
(2.09794137 -0.289038767 -0.0043830751)
(2.18859094 -0.236437101 -0.00447876398)
(4.4012165 0.000575414291 0.341438766)
(3.8557522 0.00152786861 0.529712259)
(3.26539195 0.00230459399 0.424082277)
(2.67236589 0.00290243828 0.27040054)
(2.2648347 0.00286495804 0.152636137)
(2.01552332 0.00180073522 0.0786039833)
(1.85563452 -0.000498645316 0.037109186)
(1.7553287 -0.00411917983 0.0154731568)
(1.69753686 -0.00910319035 0.00511160669)
(1.66644154 -0.0154880834 0.000700378024)
(1.65082145 -0.0233360883 -0.0009086259)
(1.64398187 -0.0327516616 -0.0013082284)
(1.64194841 -0.0438867869 -0.00125050529)
(1.64245291 -0.0569534473 -0.00108571753)
(1.64437284 -0.0722302422 -0.000941830135)
(1.64734341 -0.0900587305 -0.000852229089)
(1.65154232 -0.110836758 -0.000832744546)
(1.65761317 -0.134994947 -0.000897933873)
(1.6666577 -0.162945775 -0.00106024443)
(1.68028041 -0.194985444 -0.00133320442)
(1.70067088 -0.23111862 -0.001734342)
(1.7306816 -0.270765054 -0.00228299036)
(1.77382207 -0.312299529 -0.00299236096)
(1.83402631 -0.352384332 -0.00385361429)
(1.91494676 -0.385110905 -0.00480502069)
(2.01843712 -0.401094504 -0.00570004074)
(2.14145333 -0.387084688 -0.00620330426)
(2.27268081 -0.327969099 -0.00602022069)
(4.40116818 0.00024993323 0.341462734)
(3.85544055 0.000696451014 0.529776886)
(3.26459755 0.00106862697 0.424164379)
(2.67092962 0.00130950837 0.270478133)
(2.26266354 0.000991150997 0.152703447)
(2.01252938 -0.000238439832 0.0786639228)
(1.85171925 -0.00256929744 0.03716331)
(1.75039161 -0.00609000874 0.0155228853)
(1.69146873 -0.010857231 0.00515709574)
(1.65911467 -0.0169362585 0.000739308216)
(1.64208241 -0.0244262733 -0.000877003247)
(1.63363096 -0.0334752063 -0.0012821535)
(1.62973348 -0.0442942897 -0.00122949087)
(1.62806012 -0.0571760299 -0.00107052018)
(1.62741673 -0.0725072326 -0.000935374073)
(1.6273645 -0.090778977 -0.000861080111)
(1.62801541 -0.11259946 -0.000868681805)
(1.62997829 -0.138695951 -0.000980300174)
(1.63439281 -0.169894452 -0.00121951115)
(1.64304718 -0.207052439 -0.00161590809)
(1.65858065 -0.250901142 -0.00220920839)
(1.68474585 -0.301725378 -0.00304725565)
(1.7266612 -0.358771082 -0.0041758541)
(1.79088372 -0.419235345 -0.00561259044)
(1.88496774 -0.47670362 -0.0072901743)
(2.01580644 -0.51889398 -0.00895946209)
(2.18483482 -0.525486294 -0.00983400777)
(2.38197987 -0.466977192 -0.00909799625)
(4.40112682 2.55786458e-05 0.341485319)
(3.85516697 0.000120833873 0.529834611)
(3.26389412 0.000208954771 0.424236666)
(2.66965353 0.000201396854 0.270546057)
(2.26072838 -0.000287883003 0.152762161)
(2.00984821 -0.00156804843 0.0787156719)
(1.84819088 -0.00381073396 0.0372101733)
(1.7459115 -0.00710140385 0.0155664646)
(1.68591532 -0.0115061883 0.00519596688)
(1.65234429 -0.017109391 0.000771854604)
(1.63390848 -0.0240334438 -0.000849837669)
(1.62381356 -0.0324570236 -0.00125964379)
(1.61796382 -0.0426358973 -0.0012118567)
(1.61394179 -0.0549242556 -0.00105939531)
(1.61044289 -0.0697981669 -0.000934937463)
(1.60689604 -0.0878828773 -0.000880077678)
(1.60326251 -0.109991757 -0.000923041447)
(1.59999584 -0.137167615 -0.00109733568)
(1.59811094 -0.170718798 -0.00144468231)
(1.59937709 -0.212228427 -0.00202295881)
(1.60666882 -0.263488778 -0.00291427454)
(1.62449918 -0.326262451 -0.00422638626)
(1.65972632 -0.401680268 -0.00608247029)
(1.7223041 -0.488941709 -0.00858258259)
(1.82579214 -0.582782947 -0.0117360006)
(1.98625307 -0.66880506 -0.015231191)
(2.21776754 -0.717786646 -0.0177641916)
(2.52410189 -0.670940546 -0.0170057037)
(4.40109235 -0.000109116744 0.341505874)
(3.85493323 -0.000230279439 0.529884914)
(3.26328816 -0.000318801599 0.424298668)
(2.66855103 -0.000476227881 0.270603903)
(2.25905205 -0.00103463727 0.152811799)
(2.00751522 -0.00225698309 0.0787591488)
(1.84510533 -0.00429219772 0.0372504285)
(1.74196888 -0.00721903337 0.0156035231)
(1.68099391 -0.0111070851 0.00522832914)
(1.64628932 -0.0160480534 0.000799329757)
(1.62651828 -0.0221732064 -0.000826621302)
(1.61482602 -0.0296752748 -0.00124051901)
(1.60703426 -0.0388306008 -0.00119761145)
(1.600615 -0.0500244155 -0.00105246059)
(1.59411632 -0.0637847094 -0.000940726605)