/*--------------------------------*- C++ -*----------------------------------*\
| =========                 |                                                 |
| \\      /  F ield         | foam-extend: Open Source CFD                    |
|  \\    /   O peration     | Version:     4.1                                |
|   \\  /    A nd           | Web:         http://www.foam-extend.org         |
|    \\/     M anipulation  |                                                 |
\*---------------------------------------------------------------------------*/
FoamFile
{
    version     2.0;
    format      ascii;
    class       volScalarField::DimensionedInternalField;
    location    "0.05";
    object      V0;
}
// * * * * * * * * * * * * * * * * * * * * * * * * * * * * * * * * * * * * * //

dimensions      [0 3 0 0 0 0 0];

value           nonuniform List<scalar> 
35840
(
1.00000001e-06
1.00000003e-06
1.00000006e-06
1.00000008e-06
1.00000011e-06
1.00000015e-06
1.00000018e-06
1.00000023e-06
1.00000028e-06
1.00000034e-06
1.00000041e-06
1.00000049e-06
1.00000058e-06
1.00000068e-06
1.00000079e-06
1.00000091e-06
1.00000105e-06
1.00000119e-06
1.00000135e-06
1.00000151e-06
1.00000167e-06
1.00000184e-06
1.000002e-06
1.00000215e-06
1.00000229e-06
1.00000242e-06
1.00000252e-06
1.0000026e-06
1.00000001e-06
1.00000003e-06
1.00000006e-06
1.00000009e-06
1.00000012e-06
1.00000015e-06
1.00000019e-06
1.00000023e-06
1.00000029e-06
1.00000035e-06
1.00000042e-06
1.0000005e-06
1.00000059e-06
1.0000007e-06
1.00000082e-06
1.00000094e-06
1.00000109e-06
1.00000124e-06
1.0000014e-06
1.00000157e-06
1.00000174e-06
1.00000192e-06
1.00000209e-06
1.00000225e-06
1.0000024e-06
1.00000253e-06
1.00000265e-06
1.00000273e-06
1.00000001e-06
1.00000004e-06
1.00000006e-06
1.00000009e-06
1.00000012e-06
1.00000016e-06
1.0000002e-06
1.00000025e-06
1.00000031e-06
1.00000037e-06
1.00000045e-06
1.00000054e-06
1.00000064e-06
1.00000076e-06
1.00000089e-06
1.00000103e-06
1.00000119e-06
1.00000137e-06
1.00000155e-06
1.00000174e-06
1.00000194e-06
1.00000214e-06
1.00000233e-06
1.00000252e-06
1.0000027e-06
1.00000285e-06
1.00000298e-06
1.00000309e-06
1.00000001e-06
1.00000004e-06
1.00000007e-06
1.0000001e-06
1.00000014e-06
1.00000018e-06
1.00000022e-06
1.00000028e-06
1.00000034e-06
1.00000042e-06
1.00000051e-06
1.00000061e-06
1.00000073e-06
1.00000087e-06
1.00000102e-06
1.00000119e-06
1.00000139e-06
1.00000159e-06
1.00000182e-06
1.00000205e-06
1.00000229e-06
1.00000254e-06
1.00000278e-06
1.00000302e-06
1.00000323e-06
1.00000343e-06
1.00000359e-06
1.00000372e-06
1.00000002e-06
1.00000005e-06
1.00000008e-06
1.00000011e-06
1.00000015e-06
1.0000002e-06
1.00000025e-06
1.00000032e-06
1.00000039e-06
1.00000048e-06
1.00000059e-06
1.00000072e-06
1.00000086e-06
1.00000103e-06
1.00000122e-06
1.00000143e-06
1.00000167e-06
1.00000193e-06
1.00000221e-06
1.00000251e-06
1.00000282e-06
1.00000314e-06
1.00000345e-06
1.00000376e-06
1.00000404e-06
1.0000043e-06
1.00000451e-06
1.00000468e-06
1.00000002e-06
1.00000005e-06
1.00000009e-06
1.00000013e-06
1.00000018e-06
1.00000023e-06
1.0000003e-06
1.00000037e-06
1.00000046e-06
1.00000057e-06
1.0000007e-06
1.00000086e-06
1.00000104e-06
1.00000125e-06
1.00000149e-06
1.00000176e-06
1.00000206e-06
1.0000024e-06
1.00000276e-06
1.00000315e-06
1.00000356e-06
1.00000398e-06
1.00000439e-06
1.0000048e-06
1.00000518e-06
1.00000552e-06
1.00000581e-06
1.00000604e-06
1.00000002e-06
1.00000006e-06
1.00000011e-06
1.00000015e-06
1.00000021e-06
1.00000027e-06
1.00000035e-06
1.00000044e-06
1.00000055e-06
1.00000069e-06
1.00000085e-06
1.00000104e-06
1.00000126e-06
1.00000153e-06
1.00000183e-06
1.00000218e-06
1.00000257e-06
1.00000301e-06
1.00000349e-06
1.000004e-06
1.00000454e-06
1.00000509e-06
1.00000565e-06
1.0000062e-06
1.00000671e-06
1.00000718e-06
1.00000757e-06
1.00000788e-06
1.00000002e-06
1.00000007e-06
1.00000012e-06
1.00000018e-06
1.00000024e-06
1.00000032e-06
1.00000041e-06
1.00000052e-06
1.00000066e-06
1.00000083e-06
1.00000102e-06
1.00000126e-06
1.00000155e-06
1.00000188e-06
1.00000227e-06
1.00000272e-06
1.00000323e-06
1.00000379e-06
1.00000442e-06
1.0000051e-06
1.00000582e-06
1.00000656e-06
1.00000732e-06
1.00000806e-06
1.00000875e-06
1.00000939e-06
1.00000993e-06
1.00001036e-06
1.00000003e-06
1.00000008e-06
1.00000014e-06
1.00000021e-06
1.00000029e-06
1.00000038e-06
1.00000049e-06
1.00000062e-06
1.00000079e-06
1.00000099e-06
1.00000124e-06
1.00000154e-06
1.00000189e-06
1.00000232e-06
1.00000281e-06
1.00000339e-06
1.00000405e-06
1.00000479e-06
1.00000561e-06
1.00000651e-06
1.00000747e-06
1.00000847e-06
1.00000948e-06
1.00001049e-06
1.00001144e-06
1.00001231e-06
1.00001305e-06
1.00001365e-06
1.00000003e-06
1.0000001e-06
1.00000017e-06
1.00000024e-06
1.00000033e-06
1.00000044e-06
1.00000057e-06
1.00000074e-06
1.00000094e-06
1.00000119e-06
1.00000149e-06
1.00000186e-06
1.00000231e-06
1.00000284e-06
1.00000347e-06
1.00000421e-06
1.00000506e-06
1.00000603e-06
1.00000711e-06
1.00000829e-06
1.00000957e-06
1.00001091e-06
1.00001228e-06
1.00001364e-06
1.00001495e-06
1.00001614e-06
1.00001716e-06
1.00001798e-06
1.00000004e-06
1.00000011e-06
1.00000019e-06
1.00000028e-06
1.00000039e-06
1.00000052e-06
1.00000067e-06
1.00000087e-06
1.00000111e-06
1.00000142e-06
1.00000179e-06
1.00000225e-06
1.0000028e-06
1.00000347e-06
1.00000427e-06
1.00000521e-06
1.0000063e-06
1.00000755e-06
1.00000897e-06
1.00001053e-06
1.00001223e-06
1.00001402e-06
1.00001587e-06
1.00001771e-06
1.00001949e-06
1.00002112e-06
1.00002253e-06
1.00002366e-06
1.00000004e-06
1.00000013e-06
1.00000022e-06
1.00000032e-06
1.00000045e-06
1.0000006e-06
1.00000078e-06
1.00000102e-06
1.00000131e-06
1.00000167e-06
1.00000213e-06
1.00000269e-06
1.00000338e-06
1.00000421e-06
1.00000521e-06
1.0000064e-06
1.0000078e-06
1.00000942e-06
1.00001126e-06
1.00001331e-06
1.00001555e-06
1.00001794e-06
1.00002043e-06
1.00002293e-06
1.00002535e-06
1.00002758e-06
1.00002952e-06
1.00003108e-06
1.00000005e-06
1.00000014e-06
1.00000025e-06
1.00000037e-06
1.00000051e-06
1.00000068e-06
1.0000009e-06
1.00000118e-06
1.00000153e-06
1.00000197e-06
1.00000251e-06
1.00000319e-06
1.00000404e-06
1.00000507e-06
1.00000632e-06
1.00000782e-06
1.00000959e-06
1.00001166e-06
1.00001404e-06
1.00001671e-06
1.00001967e-06
1.00002285e-06
1.00002618e-06
1.00002956e-06
1.00003285e-06
1.00003591e-06
1.00003858e-06
1.00004072e-06
1.00000005e-06
1.00000016e-06
1.00000028e-06
1.00000041e-06
1.00000058e-06
1.00000078e-06
1.00000103e-06
1.00000135e-06
1.00000176e-06
1.00000228e-06
1.00000294e-06
1.00000376e-06
1.00000478e-06
1.00000605e-06
1.00000759e-06
1.00000946e-06
1.0000117e-06
1.00001433e-06
1.00001738e-06
1.00002085e-06
1.00002472e-06
1.00002893e-06
1.00003338e-06
1.00003793e-06
1.0000424e-06
1.00004658e-06
1.00005025e-06
1.00005321e-06
1.00000006e-06
1.00000018e-06
1.00000031e-06
1.00000046e-06
1.00000064e-06
1.00000087e-06
1.00000116e-06
1.00000154e-06
1.00000201e-06
1.00000262e-06
1.0000034e-06
1.00000438e-06
1.00000561e-06
1.00000714e-06
1.00000903e-06
1.00001134e-06
1.00001413e-06
1.00001745e-06
1.00002133e-06
1.0000258e-06
1.00003084e-06
1.00003637e-06
1.00004229e-06
1.0000484e-06
1.00005445e-06
1.00006016e-06
1.00006521e-06
1.00006929e-06
1.00000006e-06
1.0000002e-06
1.00000034e-06
1.00000051e-06
1.00000071e-06
1.00000097e-06
1.0000013e-06
1.00000172e-06
1.00000227e-06
1.00000297e-06
1.00000388e-06
1.00000503e-06
1.00000649e-06
1.00000833e-06
1.00001062e-06
1.00001345e-06
1.00001689e-06
1.00002103e-06
1.00002593e-06
1.00003164e-06
1.00003814e-06
1.00004537e-06
1.00005319e-06
1.00006136e-06
1.00006954e-06
1.00007733e-06
1.00008426e-06
1.00008989e-06
1.00000007e-06
1.00000021e-06
1.00000037e-06
1.00000055e-06
1.00000078e-06
1.00000106e-06
1.00000143e-06
1.00000191e-06
1.00000253e-06
1.00000333e-06
1.00000437e-06
1.00000571e-06
1.00000742e-06
1.0000096e-06
1.00001234e-06
1.00001575e-06
1.00001995e-06
1.00002505e-06
1.00003117e-06
1.00003838e-06
1.0000467e-06
1.00005608e-06
1.00006635e-06
1.00007722e-06
1.00008824e-06
1.00009884e-06
1.00010837e-06
1.00011616e-06
1.00000008e-06
1.00000023e-06
1.0000004e-06
1.00000059e-06
1.00000084e-06
1.00000115e-06
1.00000155e-06
1.00000208e-06
1.00000277e-06
1.00000368e-06
1.00000486e-06
1.00000639e-06
1.00000836e-06
1.0000109e-06
1.00001412e-06
1.00001817e-06
1.00002323e-06
1.00002945e-06
1.00003698e-06
1.00004598e-06
1.00005652e-06
1.00006857e-06
1.00008197e-06
1.00009635e-06
1.00011115e-06
1.00012557e-06
1.00013868e-06
1.00014948e-06
1.00000008e-06
1.00000024e-06
1.00000042e-06
1.00000063e-06
1.00000089e-06
1.00000122e-06
1.00000166e-06
1.00000223e-06
1.00000299e-06
1.00000399e-06
1.00000531e-06
1.00000703e-06
1.00000927e-06
1.00001217e-06
1.00001588e-06
1.00002062e-06
1.0000266e-06
1.00003405e-06
1.00004322e-06
1.00005431e-06
1.00006749e-06
1.0000828e-06
1.00010011e-06
1.00011901e-06
1.00013882e-06
1.00015846e-06
1.00017656e-06
1.00019164e-06
1.00000008e-06
1.00000025e-06
1.00000043e-06
1.00000065e-06
1.00000092e-06
1.00000128e-06
1.00000174e-06
1.00000236e-06
1.00000317e-06
1.00000426e-06
1.00000569e-06
1.00000759e-06
1.00001008e-06
1.00001333e-06
1.00001754e-06
1.00002298e-06
1.00002992e-06
1.00003868e-06
1.00004962e-06
1.00006309e-06
1.00007933e-06
1.00009853e-06
1.00012064e-06
1.00014531e-06
1.00017174e-06
1.00019853e-06
1.00022373e-06
1.00024503e-06
1.00000008e-06
1.00000025e-06
1.00000044e-06
1.00000066e-06
1.00000094e-06
1.00000131e-06
1.00000179e-06
1.00000243e-06
1.00000329e-06
1.00000444e-06
1.00000598e-06
1.00000802e-06
1.00001073e-06
1.0000143e-06
1.00001898e-06
1.00002507e-06
1.00003296e-06
1.00004306e-06
1.00005585e-06
1.00007184e-06
1.00009153e-06
1.00011524e-06
1.00014312e-06
1.00017504e-06
1.00021022e-06
1.00024697e-06
1.00028254e-06
1.00031328e-06
1.00000008e-06
1.00000025e-06
1.00000044e-06
1.00000066e-06
1.00000094e-06
1.00000131e-06
1.0000018e-06
1.00000246e-06
1.00000334e-06
1.00000453e-06
1.00000613e-06
1.00000828e-06
1.00001115e-06
1.00001496e-06
1.00002002e-06
1.00002669e-06
1.00003542e-06
1.00004677e-06
1.00006135e-06
1.0000799e-06
1.00010316e-06
1.00013185e-06
1.00016657e-06
1.00020754e-06
1.00025431e-06
1.0003052e-06
1.00035658e-06
1.00040255e-06
1.00000008e-06
1.00000024e-06
1.00000042e-06
1.00000064e-06
1.00000091e-06
1.00000128e-06
1.00000176e-06
1.00000242e-06
1.0000033e-06
1.0000045e-06
1.00000612e-06
1.00000831e-06
1.00001126e-06
1.00001522e-06
1.00002052e-06
1.00002758e-06
1.00003695e-06
1.00004929e-06
1.00006541e-06
1.00008629e-06
1.00011304e-06
1.00014696e-06
1.00018944e-06
1.00024153e-06
1.00030373e-06
1.00037522e-06
1.00045198e-06
1.0005245e-06
1.00000007e-06
1.00000023e-06
1.0000004e-06
1.0000006e-06
1.00000086e-06
1.00000121e-06
1.00000167e-06
1.0000023e-06
1.00000316e-06
1.00000432e-06
1.00000591e-06
1.00000807e-06
1.00001099e-06
1.00001496e-06
1.00002031e-06
1.00002752e-06
1.00003719e-06
1.00005011e-06
1.00006727e-06
1.00008995e-06
1.00011977e-06
1.00015875e-06
1.00020937e-06
1.00027462e-06
1.00035748e-06
1.00045983e-06
1.00057946e-06
1.00070198e-06
1.00000007e-06
1.00000021e-06
1.00000036e-06
1.00000055e-06
1.00000079e-06
1.0000011e-06
1.00000153e-06
1.00000212e-06
1.00000291e-06
1.000004e-06
1.00000549e-06
1.00000753e-06
1.00001031e-06
1.00001411e-06
1.00001928e-06
1.00002631e-06
1.00003584e-06
1.00004874e-06
1.00006617e-06
1.0000897e-06
1.00012147e-06
1.00016446e-06
1.00022284e-06
1.00030265e-06
1.00041256e-06
1.00056208e-06
1.00075655e-06
1.00097784e-06
1.00000006e-06
1.00000018e-06
1.00000031e-06
1.00000048e-06
1.00000068e-06
1.00000096e-06
1.00000134e-06
1.00000185e-06
1.00000256e-06
1.00000353e-06
1.00000486e-06
1.00000668e-06
1.00000919e-06
1.00001263e-06
1.00001735e-06
1.00002382e-06
1.00003267e-06
1.0000448e-06
1.00006143e-06
1.00008433e-06
1.0001161e-06
1.00016076e-06
1.00022478e-06
1.00031881e-06
1.00046078e-06
1.00067956e-06
1.00100405e-06
1.00141457e-06
1.00000005e-06
1.00000015e-06
1.00000025e-06
1.00000039e-06
1.00000056e-06
1.00000079e-06
1.0000011e-06
1.00000152e-06
1.00000211e-06
1.00000291e-06
1.00000402e-06
1.00000554e-06
1.00000765e-06
1.00001055e-06
1.00001455e-06
1.00002006e-06
1.00002767e-06
1.00003817e-06
1.00005275e-06
1.00007315e-06
1.00010214e-06
1.00014443e-06
1.00020856e-06
1.00031093e-06
1.00048306e-06
1.00078325e-06
1.00131644e-06
1.00200978e-06
1.00000003e-06
1.00000011e-06
1.00000019e-06
1.00000029e-06
1.00000041e-06
1.00000058e-06
1.00000081e-06
1.00000113e-06
1.00000157e-06
1.00000217e-06
1.000003e-06
1.00000415e-06
1.00000574e-06
1.00000794e-06
1.00001098e-06
1.00001519e-06
1.00002101e-06
1.0000291e-06
1.0000404e-06
1.00005638e-06
1.00007942e-06
1.00011384e-06
1.00016821e-06
1.00026088e-06
1.00043255e-06
1.00076416e-06
1.00133482e-06
1.00299045e-06
1.00000003e-06
1.0000001e-06
1.00000017e-06
1.00000024e-06
1.00000033e-06
1.00000042e-06
1.00000053e-06
1.00000066e-06
1.00000081e-06
1.00000098e-06
1.00000118e-06
1.00000141e-06
1.00000167e-06
1.00000196e-06
1.00000229e-06
1.00000265e-06
1.00000304e-06
1.00000347e-06
1.00000391e-06
1.00000438e-06
1.00000485e-06
1.00000533e-06
1.0000058e-06
1.00000624e-06
1.00000665e-06
1.00000701e-06
1.00000732e-06
1.00000756e-06
1.00000003e-06
1.0000001e-06
1.00000017e-06
1.00000025e-06
1.00000033e-06
1.00000043e-06
1.00000054e-06
1.00000068e-06
1.00000083e-06
1.00000101e-06
1.00000121e-06
1.00000145e-06
1.00000172e-06
1.00000202e-06
1.00000237e-06
1.00000274e-06
1.00000315e-06
1.0000036e-06
1.00000407e-06
1.00000456e-06
1.00000506e-06
1.00000556e-06
1.00000606e-06
1.00000653e-06
1.00000696e-06
1.00000735e-06
1.00000768e-06
1.00000793e-06
1.00000004e-06
1.00000011e-06
1.00000018e-06
1.00000026e-06
1.00000035e-06
1.00000046e-06
1.00000058e-06
1.00000072e-06
1.00000089e-06
1.00000108e-06
1.00000131e-06
1.00000156e-06
1.00000186e-06
1.0000022e-06
1.00000258e-06
1.000003e-06
1.00000346e-06
1.00000396e-06
1.00000449e-06
1.00000505e-06
1.00000563e-06
1.00000621e-06
1.00000677e-06
1.00000732e-06
1.00000783e-06
1.00000828e-06
1.00000866e-06
1.00000895e-06
1.00000004e-06
1.00000012e-06
1.0000002e-06
1.00000029e-06
1.00000039e-06
1.00000051e-06
1.00000064e-06
1.0000008e-06
1.00000099e-06
1.00000121e-06
1.00000147e-06
1.00000177e-06
1.00000212e-06
1.00000252e-06
1.00000297e-06
1.00000347e-06
1.00000402e-06
1.00000462e-06
1.00000527e-06
1.00000595e-06
1.00000666e-06
1.00000737e-06
1.00000807e-06
1.00000875e-06
1.00000938e-06
1.00000995e-06
1.00001043e-06
1.0000108e-06
1.00000004e-06
1.00000013e-06
1.00000023e-06
1.00000033e-06
1.00000045e-06
1.00000058e-06
1.00000074e-06
1.00000092e-06
1.00000114e-06
1.00000141e-06
1.00000172e-06
1.00000208e-06
1.0000025e-06
1.00000298e-06
1.00000354e-06
1.00000416e-06
1.00000485e-06
1.00000561e-06
1.00000643e-06
1.00000729e-06
1.00000819e-06
1.00000911e-06
1.00001003e-06
1.00001091e-06
1.00001173e-06
1.00001247e-06
1.0000131e-06
1.00001359e-06
1.00000005e-06
1.00000015e-06
1.00000026e-06
1.00000038e-06
1.00000052e-06
1.00000067e-06
1.00000086e-06
1.00000108e-06
1.00000135e-06
1.00000167e-06
1.00000204e-06
1.00000249e-06
1.00000301e-06
1.00000362e-06
1.00000431e-06
1.0000051e-06
1.00000598e-06
1.00000696e-06
1.00000802e-06
1.00000914e-06
1.00001033e-06
1.00001154e-06
1.00001275e-06
1.00001392e-06
1.00001502e-06
1.00001601e-06
1.00001686e-06
1.00001752e-06
1.00000006e-06
1.00000018e-06
1.00000031e-06
1.00000044e-06
1.0000006e-06
1.00000079e-06
1.00000101e-06
1.00000128e-06
1.0000016e-06
1.00000199e-06
1.00000246e-06
1.00000301e-06
1.00000367e-06
1.00000443e-06
1.00000532e-06
1.00000633e-06
1.00000747e-06
1.00000873e-06
1.00001012e-06
1.0000116e-06
1.00001317e-06
1.00001479e-06
1.00001641e-06
1.00001799e-06
1.00001948e-06
1.00002082e-06
1.00002197e-06
1.00002288e-06
1.00000007e-06
1.00000021e-06
1.00000036e-06
1.00000052e-06
1.00000071e-06
1.00000093e-06
1.0000012e-06
1.00000152e-06
1.00000192e-06
1.0000024e-06
1.00000297e-06
1.00000367e-06
1.00000449e-06
1.00000546e-06
1.00000659e-06
1.00000789e-06
1.00000936e-06
1.00001101e-06
1.00001283e-06
1.0000148e-06
1.00001689e-06
1.00001905e-06
1.00002124e-06
1.00002338e-06
1.00002541e-06
1.00002725e-06
1.00002882e-06
1.00003007e-06
1.00000008e-06
1.00000024e-06
1.00000041e-06
1.00000061e-06
1.00000083e-06
1.00000109e-06
1.00000141e-06
1.00000181e-06
1.00000229e-06
1.00000288e-06
1.00000359e-06
1.00000446e-06
1.00000549e-06
1.00000672e-06
1.00000816e-06
1.00000983e-06
1.00001174e-06
1.0000139e-06
1.00001629e-06
1.00001889e-06
1.00002167e-06
1.00002458e-06
1.00002753e-06
1.00003043e-06
1.0000332e-06
1.00003572e-06
1.00003788e-06
1.0000396e-06
1.00000009e-06
1.00000028e-06
1.00000048e-06
1.00000071e-06
1.00000097e-06
1.00000128e-06
1.00000167e-06
1.00000214e-06
1.00000273e-06
1.00000345e-06
1.00000433e-06
1.00000541e-06
1.0000067e-06
1.00000825e-06
1.00001008e-06
1.00001222e-06
1.00001469e-06
1.00001749e-06
1.00002063e-06
1.00002407e-06
1.00002777e-06
1.00003167e-06
1.00003565e-06
1.0000396e-06
1.00004337e-06
1.00004683e-06
1.0000498e-06
1.00005217e-06
1.00000011e-06
1.00000032e-06
1.00000056e-06
1.00000082e-06
1.00000112e-06
1.0000015e-06
1.00000195e-06
1.00000252e-06
1.00000323e-06
1.00000411e-06
1.00000519e-06
1.00000652e-06
1.00000813e-06
1.00001007e-06
1.00001239e-06
1.00001512e-06
1.00001829e-06
1.00002192e-06
1.00002602e-06
1.00003056e-06
1.00003548e-06
1.00004069e-06
1.00004605e-06
1.00005141e-06
1.00005656e-06
1.00006129e-06
1.00006539e-06
1.00006865e-06
1.00000012e-06
1.00000037e-06
1.00000064e-06
1.00000094e-06
1.00000129e-06
1.00000173e-06
1.00000227e-06
1.00000295e-06
1.0000038e-06
1.00000486e-06
1.00000618e-06
1.00000781e-06
1.0000098e-06
1.00001222e-06
1.00001513e-06
1.00001859e-06
1.00002264e-06
1.00002733e-06
1.00003266e-06
1.00003862e-06
1.00004512e-06
1.00005207e-06
1.00005928e-06
1.00006653e-06
1.00007355e-06
1.00008004e-06
1.00008567e-06
1.00009018e-06
1.00000014e-06
1.00000042e-06
1.00000072e-06
1.00000107e-06
1.00000148e-06
1.00000199e-06
1.00000262e-06
1.00000342e-06
1.00000443e-06
1.0000057e-06
1.00000729e-06
1.00000927e-06
1.00001172e-06
1.00001471e-06
1.00001834e-06
1.00002269e-06
1.00002784e-06
1.00003384e-06
1.00004074e-06
1.00004851e-06
1.00005708e-06
1.00006631e-06
1.00007597e-06
1.00008577e-06
1.00009532e-06
1.00010419e-06
1.00011194e-06
1.00011816e-06
1.00000015e-06
1.00000047e-06
1.00000081e-06
1.0000012e-06
1.00000167e-06
1.00000225e-06
1.00000299e-06
1.00000393e-06
1.00000512e-06
1.00000662e-06
1.00000853e-06
1.00001091e-06
1.00001388e-06
1.00001755e-06
1.00002203e-06
1.00002746e-06
1.00003394e-06
1.00004158e-06
1.00005043e-06
1.00006051e-06
1.00007173e-06
1.00008394e-06
1.00009685e-06
1.00011004e-06
1.00012301e-06
1.00013513e-06
1.00014578e-06
1.00015436e-06
1.00000017e-06
1.00000052e-06
1.0000009e-06
1.00000134e-06
1.00000187e-06
1.00000253e-06
1.00000338e-06
1.00000446e-06
1.00000584e-06
1.00000761e-06
1.00000986e-06
1.0000127e-06
1.00001627e-06
1.00002072e-06
1.00002621e-06
1.00003291e-06
1.000041e-06
1.00005063e-06
1.00006191e-06
1.00007488e-06
1.00008948e-06
1.00010554e-06
1.00012269e-06
1.0001404e-06
1.00015796e-06
1.00017451e-06
1.00018913e-06
1.00020096e-06
1.00000019e-06
1.00000057e-06
1.00000099e-06
1.00000148e-06
1.00000207e-06
1.00000282e-06
1.00000377e-06
1.000005e-06
1.00000659e-06
1.00000863e-06
1.00001126e-06
1.0000146e-06
1.00001884e-06
1.00002418e-06
1.00003083e-06
1.00003902e-06
1.00004901e-06
1.00006102e-06
1.00007525e-06
1.0000918e-06
1.00011066e-06
1.00013164e-06
1.00015431e-06
1.00017798e-06
1.00020168e-06
1.00022423e-06
1.00024429e-06
1.0002606e-06
1.0000002e-06
1.00000062e-06
1.00000108e-06
1.00000161e-06
1.00000226e-06
1.00000309e-06
1.00000415e-06
1.00000554e-06
1.00000733e-06
1.00000967e-06
1.00001269e-06
1.00001657e-06
1.00002153e-06
1.00002785e-06
1.0000358e-06
1.00004571e-06
1.00005788e-06
1.00007269e-06
1.00009044e-06
1.00011135e-06
1.00013548e-06
1.00016268e-06
1.00019244e-06
1.00022391e-06
1.0002558e-06
1.00028646e-06
1.00031398e-06
1.00033647e-06
1.00000022e-06
1.00000066e-06
1.00000115e-06
1.00000172e-06
1.00000243e-06
1.00000334e-06
1.00000451e-06
1.00000604e-06
1.00000805e-06
1.00001067e-06
1.00001409e-06
1.00001854e-06
1.00002427e-06
1.00003163e-06
1.00004097e-06
1.00005273e-06
1.0000674e-06
1.00008544e-06
1.0001073e-06
1.0001334e-06
1.00016394e-06
1.00019885e-06
1.00023762e-06
1.0002792e-06
1.00032194e-06
1.00036356e-06
1.0004013e-06
1.00043237e-06
1.00000023e-06
1.0000007e-06
1.00000121e-06
1.00000182e-06
1.00000258e-06
1.00000355e-06
1.00000482e-06
1.00000648e-06
1.00000869e-06
1.00001159e-06
1.0000154e-06
1.00002039e-06
1.0000269e-06
1.00003531e-06
1.00004609e-06
1.00005984e-06
1.00007719e-06
1.0000988e-06
1.00012537e-06
1.00015752e-06
1.0001957e-06
1.00024e-06
1.00029e-06
1.00034455e-06
1.00040157e-06
1.00045798e-06
1.00050983e-06
1.0005529e-06
1.00000024e-06
1.00000072e-06
1.00000126e-06
1.00000189e-06
1.00000268e-06
1.0000037e-06
1.00000505e-06
1.00000684e-06
1.00000921e-06
1.00001235e-06
1.00001652e-06
1.00002202e-06
1.00002924e-06
1.00003867e-06
1.00005091e-06
1.00006669e-06
1.0000868e-06
1.0001122e-06
1.00014393e-06
1.00018291e-06
1.00022992e-06
1.00028537e-06
1.0003491e-06
1.00042002e-06
1.00049571e-06
1.00057211e-06
1.0006436e-06
1.00070374e-06
1.00000024e-06
1.00000073e-06
1.00000127e-06
1.00000192e-06
1.00000273e-06
1.00000379e-06
1.00000519e-06
1.00000706e-06
1.00000956e-06
1.0000129e-06
1.00001735e-06
1.00002328e-06
1.00003113e-06
1.00004148e-06
1.00005506e-06
1.00007275e-06
1.00009561e-06
1.0001249e-06
1.00016194e-06
1.0002082e-06
1.00026507e-06
1.00033339e-06
1.00041344e-06
1.00050464e-06
1.00060454e-06
1.00070809e-06
1.00080741e-06
1.00089247e-06
1.00000024e-06
1.00000073e-06
1.00000127e-06
1.00000191e-06
1.00000273e-06
1.0000038e-06
1.00000522e-06
1.00000713e-06
1.0000097e-06
1.00001315e-06
1.0000178e-06
1.00002402e-06
1.00003234e-06
1.00004342e-06
1.0000581e-06
1.00007743e-06
1.00010274e-06
1.00013561e-06
1.00017782e-06
1.00023141e-06
1.00029843e-06
1.00038078e-06
1.00047987e-06
1.00059589e-06
1.00072692e-06
1.00086756e-06
1.00100725e-06
1.00113021e-06
1.00000023e-06
1.0000007e-06
1.00000123e-06
1.00000185e-06
1.00000265e-06
1.00000371e-06
1.00000511e-06
1.00000701e-06
1.00000958e-06
1.00001305e-06
1.00001776e-06
1.00002411e-06
1.00003266e-06
1.00004415e-06
1.00005953e-06
1.00008002e-06
1.00010715e-06
1.00014286e-06
1.00018948e-06
1.00024968e-06
1.00032648e-06
1.00042332e-06
1.00054352e-06
1.00068902e-06
1.00085964e-06
1.00105118e-06
1.00125113e-06
1.00143462e-06
1.00000022e-06
1.00000066e-06
1.00000115e-06
1.00000175e-06
1.00000251e-06
1.00000351e-06
1.00000486e-06
1.00000669e-06
1.00000917e-06
1.00001255e-06
1.00001715e-06
1.00002341e-06
1.0000319e-06
1.0000434e-06
1.00005893e-06
1.00007982e-06
1.00010783e-06
1.00014519e-06
1.00019472e-06
1.00025993e-06
1.00034516e-06
1.00045562e-06
1.00059705e-06
1.00077563e-06
1.00099587e-06
1.00125745e-06
1.00154902e-06
1.00183357e-06
1.0000002e-06
1.0000006e-06
1.00000105e-06
1.00000159e-06
1.00000228e-06
1.0000032e-06
1.00000445e-06
1.00000614e-06
1.00000845e-06
1.00001161e-06
1.00001594e-06
1.00002185e-06
1.00002992e-06
1.00004094e-06
1.00005593e-06
1.00007629e-06
1.00010387e-06
1.00014115e-06
1.00019135e-06
1.00025877e-06
1.00034906e-06
1.00046963e-06
1.00062994e-06
1.00084224e-06
1.00112136e-06
1.00147821e-06
1.0019083e-06
1.00236229e-06
1.00000017e-06
1.00000052e-06
1.00000091e-06
1.00000138e-06
1.00000199e-06
1.00000279e-06
1.00000389e-06
1.00000538e-06
1.00000742e-06
1.00001023e-06
1.00001409e-06
1.00001939e-06
1.00002667e-06
1.00003665e-06
1.00005034e-06
1.00006907e-06
1.00009468e-06
1.00012966e-06
1.00017746e-06
1.00024281e-06
1.00033245e-06
1.00045611e-06
1.00062801e-06
1.00086886e-06
1.00120819e-06
1.00168375e-06
1.00231173e-06
1.00302371e-06
1.00000014e-06
1.00000042e-06
1.00000074e-06
1.00000112e-06
1.00000162e-06
1.00000228e-06
1.00000318e-06
1.00000442e-06
1.00000611e-06
1.00000844e-06
1.00001166e-06
1.00001609e-06
1.0000222e-06
1.00003061e-06
1.00004221e-06
1.00005817e-06
1.00008014e-06
1.00011041e-06
1.00015221e-06
1.00021018e-06
1.00029135e-06
1.00040672e-06
1.00057447e-06
1.00082514e-06
1.00120748e-06
1.00178999e-06
1.00265539e-06
1.00362354e-06
1.0000001e-06
1.00000031e-06
1.00000055e-06
1.00000083e-06
1.0000012e-06
1.00000169e-06
1.00000236e-06
1.00000328e-06
1.00000455e-06
1.0000063e-06
1.00000871e-06
1.00001205e-06
1.00001666e-06
1.00002304e-06
1.00003184e-06
1.00004401e-06
1.00006084e-06
1.00008413e-06
1.00011647e-06
1.00016169e-06
1.00022572e-06
1.00031838e-06
1.00045708e-06
1.00067444e-06
1.00103064e-06
1.00161411e-06
1.00242884e-06
1.00457077e-06
1.00000005e-06
1.00000015e-06
1.00000026e-06
1.00000038e-06
1.00000051e-06
1.00000066e-06
1.00000083e-06
1.00000103e-06
1.00000126e-06
1.00000153e-06
1.00000184e-06
1.0000022e-06
1.0000026e-06
1.00000306e-06
1.00000357e-06
1.00000413e-06
1.00000474e-06
1.0000054e-06
1.00000609e-06
1.00000682e-06
1.00000756e-06
1.0000083e-06
1.00000903e-06
1.00000972e-06
1.00001036e-06
1.00001092e-06
1.0000114e-06
1.00001177e-06
1.00000005e-06
1.00000016e-06
1.00000027e-06
1.00000039e-06
1.00000052e-06
1.00000067e-06
1.00000085e-06
1.00000105e-06
1.00000129e-06
1.00000157e-06
1.00000189e-06
1.00000226e-06
1.00000268e-06
1.00000315e-06
1.00000368e-06
1.00000427e-06
1.00000491e-06
1.0000056e-06
1.00000633e-06
1.0000071e-06
1.00000788e-06
1.00000866e-06
1.00000943e-06
1.00001017e-06
1.00001085e-06
1.00001145e-06
1.00001196e-06
1.00001236e-06
1.00000006e-06
1.00000017e-06
1.00000028e-06
1.00000041e-06
1.00000055e-06
1.00000071e-06
1.0000009e-06
1.00000112e-06
1.00000138e-06
1.00000168e-06
1.00000203e-06
1.00000244e-06
1.0000029e-06
1.00000343e-06
1.00000402e-06
1.00000467e-06
1.00000539e-06
1.00000617e-06
1.000007e-06
1.00000787e-06
1.00000876e-06
1.00000966e-06
1.00001055e-06
1.0000114e-06
1.00001219e-06
1.00001289e-06
1.00001348e-06
1.00001394e-06
1.00000006e-06
1.00000018e-06
1.00000031e-06
1.00000045e-06
1.00000061e-06
1.00000079e-06
1.000001e-06
1.00000125e-06
1.00000155e-06
1.00000189e-06
1.00000229e-06
1.00000276e-06
1.0000033e-06
1.00000392e-06
1.00000462e-06
1.0000054e-06
1.00000626e-06
1.0000072e-06
1.00000821e-06
1.00000927e-06
1.00001037e-06
1.00001148e-06
1.00001258e-06
1.00001363e-06
1.00001462e-06
1.00001549e-06
1.00001624e-06
1.00001682e-06
1.00000007e-06
1.00000021e-06
1.00000035e-06
1.00000051e-06
1.00000069e-06
1.0000009e-06
1.00000115e-06
1.00000144e-06
1.00000178e-06
1.00000219e-06
1.00000267e-06
1.00000324e-06
1.00000389e-06
1.00000465e-06
1.00000551e-06
1.00000648e-06
1.00000756e-06
1.00000874e-06
1.00001001e-06
1.00001136e-06
1.00001276e-06
1.00001419e-06
1.00001562e-06
1.00001699e-06
1.00001827e-06
1.00001942e-06
1.0000204e-06
1.00002117e-06
1.00000008e-06
1.00000024e-06
1.00000041e-06
1.00000059e-06
1.0000008e-06
1.00000105e-06
1.00000134e-06
1.00000168e-06
1.0000021e-06
1.00000259e-06
1.00000318e-06
1.00000388e-06
1.00000469e-06
1.00000563e-06
1.00000672e-06
1.00000794e-06
1.00000932e-06
1.00001084e-06
1.00001248e-06
1.00001424e-06
1.00001608e-06
1.00001797e-06
1.00001985e-06
1.00002168e-06
1.0000234e-06
1.00002494e-06
1.00002625e-06
1.00002729e-06
1.00000009e-06
1.00000028e-06
1.00000048e-06
1.00000069e-06
1.00000094e-06
1.00000123e-06
1.00000158e-06
1.00000199e-06
1.0000025e-06
1.0000031e-06
1.00000383e-06
1.00000469e-06
1.00000571e-06
1.00000691e-06
1.00000828e-06
1.00000986e-06
1.00001163e-06
1.0000136e-06
1.00001576e-06
1.00001807e-06
1.00002051e-06
1.00002303e-06
1.00002555e-06
1.00002802e-06
1.00003034e-06
1.00003244e-06
1.00003423e-06
1.00003564e-06
1.00000011e-06
1.00000032e-06
1.00000055e-06
1.00000081e-06
1.0000011e-06
1.00000145e-06
1.00000186e-06
1.00000237e-06
1.00000299e-06
1.00000373e-06
1.00000463e-06
1.00000571e-06
1.00000699e-06
1.0000085e-06
1.00001026e-06
1.00001228e-06
1.00001458e-06
1.00001715e-06
1.00001999e-06
1.00002305e-06
1.0000263e-06
1.00002967e-06
1.00003307e-06
1.00003641e-06
1.00003957e-06
1.00004244e-06
1.00004489e-06
1.00004683e-06
1.00000012e-06
1.00000038e-06
1.00000065e-06
1.00000094e-06
1.00000129e-06
1.0000017e-06
1.0000022e-06
1.00000282e-06
1.00000357e-06
1.00000448e-06
1.0000056e-06
1.00000694e-06
1.00000856e-06
1.00001047e-06
1.00001271e-06
1.00001531e-06
1.00001829e-06
1.00002164e-06
1.00002537e-06
1.00002942e-06
1.00003376e-06
1.00003828e-06
1.00004287e-06
1.0000474e-06
1.00005171e-06
1.00005563e-06
1.000059e-06
1.00006168e-06
1.00000014e-06
1.00000044e-06
1.00000075e-06
1.0000011e-06
1.00000151e-06
1.000002e-06
1.0000026e-06
1.00000334e-06
1.00000425e-06
1.00000537e-06
1.00000675e-06
1.00000842e-06
1.00001044e-06
1.00001285e-06
1.0000157e-06
1.00001903e-06
1.00002287e-06
1.00002724e-06
1.00003213e-06
1.00003749e-06
1.00004326e-06
1.00004932e-06
1.00005552e-06
1.00006167e-06
1.00006755e-06
1.00007293e-06
1.00007756e-06
1.00008125e-06
1.00000017e-06
1.0000005e-06
1.00000087e-06
1.00000127e-06
1.00000175e-06
1.00000233e-06
1.00000304e-06
1.00000393e-06
1.00000503e-06
1.0000064e-06
1.00000809e-06
1.00001015e-06
1.00001266e-06
1.00001569e-06
1.0000193e-06
1.00002354e-06
1.00002849e-06
1.00003415e-06
1.00004053e-06
1.0000476e-06
1.00005526e-06
1.00006337e-06
1.00007172e-06
1.00008007e-06
1.00008809e-06
1.00009546e-06
1.00010184e-06
1.00010692e-06
1.00000019e-06
1.00000058e-06
1.00000099e-06
1.00000146e-06
1.00000202e-06
1.0000027e-06
1.00000354e-06
1.0000046e-06
1.00000592e-06
1.00000757e-06
1.00000962e-06
1.00001216e-06
1.00001526e-06
1.00001903e-06
1.00002357e-06
1.00002895e-06
1.00003527e-06
1.00004257e-06
1.00005087e-06
1.00006014e-06
1.00007028e-06
1.00008109e-06
1.00009233e-06
1.00010362e-06
1.00011455e-06
1.00012464e-06
1.00013342e-06
1.00014043e-06
1.00000022e-06
1.00000065e-06
1.00000112e-06
1.00000166e-06
1.0000023e-06
1.00000309e-06
1.00000408e-06
1.00000533e-06
1.0000069e-06
1.00000888e-06
1.00001136e-06
1.00001444e-06
1.00001825e-06
1.00002291e-06
1.00002856e-06
1.00003534e-06
1.00004336e-06
1.00005271e-06
1.00006345e-06
1.00007555e-06
1.00008889e-06
1.00010327e-06
1.00011832e-06
1.00013357e-06
1.00014843e-06
1.00016224e-06
1.0001743e-06
1.00018398e-06
1.00000024e-06
1.00000073e-06
1.00000126e-06
1.00000187e-06
1.0000026e-06
1.00000351e-06
1.00000466e-06
1.00000612e-06
1.00000797e-06
1.00001032e-06
1.00001328e-06
1.00001699e-06
1.00002162e-06
1.00002733e-06
1.00003432e-06
1.00004277e-06
1.00005287e-06
1.00006476e-06
1.00007855e-06
1.00009423e-06
1.00011171e-06
1.00013072e-06