/*--------------------------------*- C++ -*----------------------------------*\
| =========                 |                                                 |
| \\      /  F ield         | foam-extend: Open Source CFD                    |
|  \\    /   O peration     | Version:     4.1                                |
|   \\  /    A nd           | Web:         http://www.foam-extend.org         |
|    \\/     M anipulation  |                                                 |
\*---------------------------------------------------------------------------*/
FoamFile
{
    version     2.0;
    format      ascii;
    class       volVectorField;
    location    "0.3";
    object      cellMotionU;
}
// * * * * * * * * * * * * * * * * * * * * * * * * * * * * * * * * * * * * * //

dimensions      [0 1 -1 0 0 0 0];

internalField   nonuniform List<vector> 
35840
(
(-1.28831429e-21 1.43516486e-09 -2.44989789e-22)
(-3.8807888e-21 4.32313864e-09 -7.37981677e-22)
(-6.56522611e-21 7.31351847e-09 -1.24845835e-21)
(-9.46123247e-21 1.05394882e-08 -1.79916187e-21)
(-1.26865055e-20 1.41321159e-08 -2.4124704e-21)
(-1.63585995e-20 1.82223144e-08 -3.11073342e-21)
(-2.0596002e-20 2.29420382e-08 -3.91647587e-21)
(-2.55183221e-20 2.84244915e-08 -4.85243328e-21)
(-3.12454352e-20 3.48031736e-08 -5.9413883e-21)
(-3.78954455e-20 4.22096082e-08 -7.20578255e-21)
(-4.55813553e-20 5.07696316e-08 -8.66708234e-21)
(-5.4406373e-20 6.05981651e-08 -1.03448858e-20)
(-6.44578661e-20 7.17924789e-08 -1.22557727e-20)
(-7.58000683e-20 8.44240704e-08 -1.44119174e-20)
(-8.84657908e-20 9.85294338e-08 -1.68195141e-20)
(-1.02447551e-19 1.14100185e-07 -1.94770918e-20)
(-1.1768872e-19 1.31073205e-07 -2.2373834e-20)
(-1.34075464e-19 1.49321679e-07 -2.54880519e-20)
(-1.51430419e-19 1.68648056e-07 -2.87859871e-20)
(-1.69509105e-19 1.88780063e-07 -3.22211371e-20)
(-1.88000079e-19 2.09370891e-07 -3.57342932e-20)
(-2.0652969e-19 2.30004491e-07 -3.925445e-20)
(-2.2467197e-19 2.50206591e-07 -4.27006918e-20)
(-2.41963772e-19 2.69461552e-07 -4.59850721e-20)
(-2.57924707e-19 2.87234562e-07 -4.90164004e-20)
(-2.72080823e-19 3.02997985e-07 -5.17047361e-20)
(-2.83990461e-19 3.16260144e-07 -5.39662903e-20)
(-2.93270393e-19 3.265944e-07 -5.57283782e-20)
(-3.88138325e-21 4.32380114e-09 -7.3809472e-22)
(-1.16891172e-20 1.30214657e-08 -2.22283212e-21)
(-1.97705086e-20 2.20238552e-08 -3.759599e-21)
(-2.84885108e-20 3.17351299e-08 -5.4174072e-21)
(-3.81997721e-20 4.25524562e-08 -7.26406663e-21)
(-4.92604036e-20 5.48724128e-08 -9.3672803e-21)
(-6.20294543e-20 6.90948564e-08 -1.17953035e-20)
(-7.68696422e-20 8.56237301e-08 -1.46170803e-20)
(-9.41448996e-20 1.04864324e-07 -1.79017747e-20)
(-1.1421432e-19 1.27216527e-07 -2.17176162e-20)
(-1.37422164e-19 1.53063688e-07 -2.61299971e-20)
(-1.64083708e-19 1.82756854e-07 -3.1198779e-20)
(-1.9446694e-19 2.16594375e-07 -3.69748104e-20)
(-2.28770421e-19 2.54797247e-07 -4.34957172e-20)
(-2.6709804e-19 2.97481009e-07 -5.07811051e-20)
(-3.09431916e-19 3.4462557e-07 -5.88274134e-20)
(-3.55605249e-19 3.96044993e-07 -6.7602763e-20)
(-4.05277493e-19 4.51359876e-07 -7.70422518e-20)
(-4.5791469e-19 5.09975473e-07 -8.70442355e-20)
(-5.12778085e-19 5.7106905e-07 -9.74681878e-20)
(-5.68924109e-19 6.33589899e-07 -1.08134723e-19)
(-6.25218389e-19 6.96274951e-07 -1.18828284e-19)
(-6.80365519e-19 7.57681944e-07 -1.29302818e-19)
(-7.3295498e-19 8.16240542e-07 -1.39290517e-19)
(-7.81521859e-19 8.70319927e-07 -1.48513345e-19)
(-8.24619169e-19 9.1830929e-07 -1.56696768e-19)
(-8.60896886e-19 9.5870578e-07 -1.63584724e-19)
(-8.89181651e-19 9.90203197e-07 -1.68954729e-19)
(-6.56741934e-21 7.31596313e-09 -1.24887542e-21)
(-1.97740965e-20 2.20278549e-08 -3.76028128e-21)
(-3.34409232e-20 3.72521193e-08 -6.35917152e-21)
(-4.8190923e-20 5.36825243e-08 -9.16400599e-21)
(-6.46361138e-20 7.20006218e-08 -1.22911459e-20)
(-8.33881434e-20 9.28875662e-08 -1.58568731e-20)
(-1.05064864e-19 1.17031427e-07 -1.99786367e-20)
(-1.30292126e-19 1.45129177e-07 -2.47753897e-20)
(-1.59700043e-19 1.77882521e-07 -3.03668733e-20)
(-1.93913008e-19 2.15986763e-07 -3.68717135e-20)
(-2.33532833e-19 2.60112017e-07 -4.44042082e-20)
(-2.79114583e-19 3.10876279e-07 -5.30697274e-20)
(-3.3113505e-19 3.6881031e-07 -6.29587135e-20)
(-3.89954309e-19 4.34314823e-07 -7.41393722e-20)
(-4.55771576e-19 5.07611331e-07 -8.66492819e-20)
(-5.28577428e-19 5.8868896e-07 -1.0048632e-19)
(-6.08105489e-19 6.7725068e-07 -1.155995e-19)
(-6.93787702e-19 7.72663549e-07 -1.31880491e-19)
(-7.84718192e-19 8.7391853e-07 -1.491568e-19)
(-8.79631306e-19 9.79606093e-07 -1.67187636e-19)
(-9.76899427e-19 1.08791384e-06 -1.85663558e-19)
(-1.07455549e-18 1.19665163e-06 -2.04210803e-19)
(-1.17034354e-18 1.30330788e-06 -2.22400941e-19)
(-1.26179829e-18 1.40513816e-06 -2.39766014e-19)
(-1.34635153e-18 1.49928361e-06 -2.55818745e-19)
(-1.42145968e-18 1.58291289e-06 -2.70076737e-19)
(-1.48474379e-18 1.65337799e-06 -2.82088988e-19)
(-1.53413062e-18 1.70837119e-06 -2.91462593e-19)
(-9.4657583e-21 1.05445337e-08 -1.8000225e-21)
(-2.84978412e-20 3.17455334e-08 -5.41918148e-21)
(-4.81980356e-20 5.36904571e-08 -9.16535852e-21)
(-6.9484202e-20 7.7401402e-08 -1.3213069e-20)
(-9.32589025e-20 1.03883479e-07 -1.77339093e-20)
(-1.20426464e-19 1.34143776e-07 -2.28997959e-20)
(-1.51903935e-19 1.69203549e-07 -2.88850423e-20)
(-1.88624897e-19 2.10102446e-07 -3.58670762e-20)
(-2.31535011e-19 2.5789353e-07 -4.40255822e-20)
(-2.81578158e-19 3.13627817e-07 -5.35398571e-20)
(-3.39672158e-19 3.78327213e-07 -6.45841795e-20)
(-4.06673268e-19 4.52944959e-07 -7.73210502e-20)
(-4.83329198e-19 5.38313286e-07 -9.18922474e-20)
(-5.70221108e-19 6.35078826e-07 -1.08407796e-19)
(-6.67696175e-19 7.43627533e-07 -1.2693315e-19)
(-7.75793675e-19 8.64002408e-07 -1.47475157e-19)
(-8.94169134e-19 9.95819105e-07 -1.69967671e-19)
(-1.02202278e-18 1.13818634e-06 -1.94258006e-19)
(-1.15804002e-18 1.28963973e-06 -2.20095699e-19)
(-1.3003528e-18 1.44809886e-06 -2.47125258e-19)
(-1.44653091e-18 1.61085771e-06 -2.74884618e-19)
(-1.59361143e-18 1.77461755e-06 -3.02810847e-19)
(-1.73817224e-18 1.9355688e-06 -3.30254204e-19)
(-1.87645181e-18 2.08952438e-06 -3.56500947e-19)
(-2.00451231e-18 2.2321013e-06 -3.80804322e-19)
(-2.11843765e-18 2.35894096e-06 -4.02422097e-19)
(-2.21455236e-18 2.46595272e-06 -4.20657996e-19)
(-2.28964304e-18 2.54956023e-06 -4.34903552e-19)
(-1.26939433e-20 1.41404096e-08 -2.41388477e-21)
(-3.82165312e-20 4.25711472e-08 -7.26725352e-21)
(-6.46530729e-20 7.20195418e-08 -1.22943708e-20)
(-9.32697805e-20 1.03895618e-07 -1.77359779e-20)
(-1.2531439e-19 1.39588881e-07 -2.38292861e-20)
(-1.62042091e-19 1.80497138e-07 -3.08128986e-20)
(-2.04732869e-19 2.28045792e-07 -3.89300964e-20)
(-2.54698869e-19 2.83696009e-07 -4.84302248e-20)
(-3.1328014e-19 3.48939946e-07 -5.95678673e-20)
(-3.8182707e-19 4.25281155e-07 -7.2599486e-20)
(-4.6166788e-19 5.14198334e-07 -8.77772184e-20)
(-5.54059795e-19 6.17090917e-07 -1.05339571e-19)
(-6.60123132e-19 7.35205661e-07 -1.25498869e-19)
(-7.80758584e-19 8.69544518e-07 -1.48425515e-19)
(-9.16549487e-19 1.02075585e-06 -1.74229414e-19)
(-1.06765292e-18 1.18901323e-06 -2.02939295e-19)
(-1.23368588e-18 1.37388881e-06 -2.34481123e-19)
(-1.41361537e-18 1.57423108e-06 -2.68657309e-19)
(-1.60566385e-18 1.78805981e-06 -3.05128869e-19)
(-1.80724336e-18 2.01249283e-06 -3.43403085e-19)
(-2.01493246e-18 2.2437206e-06 -3.8282933e-19)
(-2.22450937e-18 2.4770432e-06 -4.22605579e-19)
(-2.4310513e-18 2.70698104e-06 -4.61797465e-19)
(-2.6291048e-18 2.92746444e-06 -4.99370753e-19)
(-2.81292382e-18 3.13209858e-06 -5.34236566e-19)
(-2.97676357e-18 3.31449046e-06 -5.65307053e-19)
(-3.1152089e-18 3.46861417e-06 -5.91557471e-19)
(-3.22350878e-18 3.58918295e-06 -6.12089287e-19)
(-1.63694606e-20 1.8234428e-08 -3.11279876e-21)
(-4.9286111e-20 5.49010905e-08 -9.37216873e-21)
(-8.34174794e-20 9.29203027e-08 -1.58624515e-20)
(-1.2045175e-19 1.34172002e-07 -2.2904604e-20)
(-1.62057458e-19 1.80514297e-07 -3.08158206e-20)
(-2.09921828e-19 2.33826089e-07 -3.99168065e-20)
(-2.65777422e-19 2.96036711e-07 -5.05368271e-20)
(-3.31415387e-19 3.69140631e-07 -6.3016202e-20)
(-4.08682919e-19 4.55194573e-07 -7.7705794e-20)
(-4.9946245e-19 5.56294272e-07 -9.49630141e-20)
(-6.05630065e-19 6.74528105e-07 -1.15143876e-19)
(-7.28990809e-19 8.11904985e-07 -1.38590651e-19)
(-8.71189186e-19 9.70254671e-07 -1.65614812e-19)
(-1.03359453e-18 1.15110012e-06 -1.96475211e-19)
(-1.21716296e-18 1.35550386e-06 -2.31351832e-19)
(-1.42228059e-18 1.58389347e-06 -2.70316016e-19)
(-1.64859613e-18 1.83587543e-06 -3.13298725e-19)
(-1.89485509e-18 2.1100508e-06 -3.60059199e-19)
(-2.15875195e-18 2.40385087e-06 -4.10157099e-19)
(-2.43682005e-18 2.71341492e-06 -4.62931908e-19)
(-2.72438086e-18 3.03353406e-06 -5.174937e-19)
(-3.01557405e-18 3.3576849e-06 -5.72729261e-19)
(-3.30348536e-18 3.678172e-06 -6.27326754e-19)
(-3.58038167e-18 3.9863896e-06 -6.79820629e-19)
(-3.83805105e-18 4.27319988e-06 -7.28656228e-19)
(-4.06823105e-18 4.52940952e-06 -7.72270869e-19)
(-4.26309416e-18 4.74630956e-06 -8.09185473e-19)
(-4.41574678e-18 4.91623045e-06 -8.38098489e-19)
(-2.06107698e-20 2.29585123e-08 -3.91928404e-21)
(-6.20656948e-20 6.9135293e-08 -1.18021947e-20)
(-1.05109493e-19 1.1708124e-07 -1.99871229e-20)
(-1.51947882e-19 1.69252617e-07 -2.88933988e-20)
(-2.04769048e-19 2.28086197e-07 -3.89369756e-20)
(-2.65799303e-19 2.96061152e-07 -5.05409873e-20)
(-3.37343065e-19 3.75743509e-07 -6.41433199e-20)
(-4.21805532e-19 4.69811318e-07 -8.02008797e-20)
(-5.21694303e-19 5.81056371e-07 -9.91898506e-20)
(-6.39596324e-19 7.12358424e-07 -1.21601246e-19)
(-7.78126669e-19 8.66628053e-07 -1.47931094e-19)
(-9.39845113e-19 1.04671367e-06 -1.78664497e-19)
(-1.12713729e-18 1.25526913e-06 -2.14252952e-19)
(-1.34205875e-18 1.49458015e-06 -2.5508464e-19)
(-1.58614314e-18 1.76635075e-06 -3.01447931e-19)
(-1.86017944e-18 2.07145553e-06 -3.53489082e-19)
(-2.16396887e-18 2.40966925e-06 -4.11166153e-19)
(-2.49607741e-18 2.77939181e-06 -4.74202259e-19)
(-2.85360721e-18 3.17739416e-06 -5.42042548e-19)
(-3.23201548e-18 3.59861725e-06 -6.13820401e-19)
(-3.62501409e-18 4.03606069e-06 -6.88339103e-19)
(-4.02458336e-18 4.48079847e-06 -7.64075286e-19)
(-4.42112904e-18 4.92215379e-06 -8.39209504e-19)
(-4.80380035e-18 5.34805307e-06 -9.11687176e-19)
(-5.16096972e-18 5.74555966e-06 -9.79309805e-19)
(-5.48085245e-18 6.10156305e-06 -1.03985219e-18)
(-5.75222085e-18 6.40357316e-06 -1.09119696e-18)
(-5.96514642e-18 6.64054562e-06 -1.1314738e-18)
(-2.55373631e-20 2.84457368e-08 -4.85605391e-21)
(-7.69181327e-20 8.56778455e-08 -1.46263007e-20)
(-1.30356036e-19 1.45200521e-07 -2.47875416e-20)
(-1.88693735e-19 2.10179312e-07 -3.5880165e-20)
(-2.54763905e-19 2.83768644e-07 -4.84425904e-20)
(-3.31468671e-19 3.69200148e-07 -6.30263327e-20)
(-4.21837954e-19 4.69847535e-07 -8.02070436e-20)
(-5.29067157e-19 5.89268428e-07 -1.00591606e-19)
(-6.56526774e-19 7.3121493e-07 -1.2481987e-19)
(-8.07738888e-19 8.99607276e-07 -1.53560073e-19)
(-9.86316588e-19 1.09846622e-06 -1.8749718e-19)
(-1.19585906e-18 1.33179608e-06 -2.27312789e-19)
(-1.43979679e-18 1.60341232e-06 -2.73655538e-19)
(-1.72118271e-18 1.91670907e-06 -3.2710126e-19)
(-2.04242891e-18 2.27436609e-06 -3.88102847e-19)
(-2.40499385e-18 2.67800098e-06 -4.5693082e-19)
(-2.80903246e-18 3.12778008e-06 -5.33607021e-19)
(-3.25303029e-18 3.62201192e-06 -6.17835531e-19)
(-3.73345316e-18 4.15675792e-06 -7.08936858e-19)
(-4.24445405e-18 4.7255069e-06 -8.05793336e-19)
(-4.7776867e-18 5.31896822e-06 -9.06815141e-19)
(-5.32227894e-18 5.92504259e-06 -1.00993682e-18)
(-5.86501373e-18 6.52902373e-06 -1.11265323e-18)
(-6.39075135e-18 7.11406812e-06 -1.21210084e-18)
(-6.8831004e-18 7.66194136e-06 -1.30518554e-18)
(-7.3253109e-18 8.15401145e-06 -1.38875141e-18)
(-7.70132363e-18 8.57241568e-06 -1.45977787e-18)
(-7.99687475e-18 8.90128909e-06 -1.51558619e-18)
(-3.12684795e-20 3.48288921e-08 -5.94576995e-21)
(-9.42069995e-20 1.0493364e-07 -1.79135823e-20)
(-1.59789241e-19 1.779821e-07 -3.0383833e-20)
(-2.31638838e-19 2.5800946e-07 -4.40453229e-20)
(-3.13387056e-19 3.49059342e-07 -5.95881945e-20)
(-4.08783209e-19 4.55306578e-07 -7.77248606e-20)
(-5.21775836e-19 5.81147433e-07 -9.92053502e-20)
(-6.56575647e-19 7.31269517e-07 -1.2482916e-19)
(-8.17678879e-19 9.10677557e-07 -1.55449539e-19)
(-1.00984544e-18 1.12466882e-06 -1.91969132e-19)
(-1.23803154e-18 1.37875782e-06 -2.35326926e-19)
(-1.50726111e-18 1.67853304e-06 -2.8647352e-19)
(-1.82242842e-18 2.02943702e-06 -3.46333289e-19)
(-2.18802239e-18 2.43645952e-06 -4.15751677e-19)
(-2.60776978e-18 2.90374063e-06 -4.95427169e-19)
(-3.08420052e-18 3.43408741e-06 -5.85828615e-19)
(-3.61814896e-18 4.02841953e-06 -6.8710072e-19)
(-4.20821774e-18 4.6851735e-06 -7.98962863e-19)
(-4.85024622e-18 5.39971206e-06 -9.20609392e-19)
(-5.5368424e-18 6.1638043e-06 -1.05062269e-18)
(-6.25705246e-18 6.96525872e-06 -1.18691305e-18)
(-6.99625013e-18 7.78780062e-06 -1.32670078e-18)
(-7.73632508e-18 8.61128193e-06 -1.46655512e-18)
(-8.45623084e-18 9.4122906e-06 -1.60250071e-18)
(-9.13291539e-18 1.01651856e-05 -1.73019535e-18)
(-9.74260453e-18 1.08435238e-05 -1.84517229e-18)
(-1.02623442e-17 1.14217755e-05 -1.9431292e-18)
(-1.06716484e-17 1.18771567e-05 -2.0202346e-18)
(-3.79195868e-20 4.22365655e-08 -7.21037243e-21)
(-1.14288619e-19 1.27299481e-07 -2.17317424e-20)
(-1.94037344e-19 2.16125561e-07 -3.68953527e-20)
(-2.81734185e-19 3.13802e-07 -5.35695207e-20)
(-3.81997095e-19 4.25470983e-07 -7.26318097e-20)
(-4.99636631e-19 5.56488743e-07 -9.4996126e-20)
(-6.39755684e-19 7.1253636e-07 -1.21631538e-19)
(-8.07863345e-19 8.9974626e-07 -1.53583728e-19)
(-1.00991925e-18 1.12475125e-06 -1.91983158e-19)
(-1.2523118e-18 1.39465989e-06 -2.38040586e-19)
(-1.54179383e-18 1.71698453e-06 -2.93034393e-19)
(-1.88532853e-18 2.0994695e-06 -3.58280769e-19)
(-2.28984453e-18 2.54981836e-06 -4.35086557e-19)
(-2.76187731e-18 3.07529491e-06 -5.24680503e-19)
(-3.30709257e-18 3.6821931e-06 -6.28122154e-19)
(-3.92968845e-18 4.37517256e-06 -7.46188024e-19)
(-4.63169221e-18 5.156477e-06 -8.79238216e-19)
(-5.41218239e-18 6.02506989e-06 -1.02706969e-18)
(-6.26648999e-18 6.97574701e-06 -1.18876669e-18)
(-7.18546134e-18 7.9983174e-06 -1.36256423e-18)
(-8.15489098e-18 9.07697335e-06 -1.54574531e-18)
(-9.15525187e-18 1.01899906e-05 -1.73459572e-18)
(-1.01618518e-17 1.13099023e-05 -1.92444002e-18)
(-1.11455228e-17 1.24042654e-05 -2.10977773e-18)
(-1.20738986e-17 1.34370815e-05 -2.28452847e-18)
(-1.29132528e-17 1.43708399e-05 -2.44237896e-18)
(-1.36307674e-17 1.51690411e-05 -2.57720646e-18)
(-1.41969987e-17 1.57989391e-05 -2.6835343e-18)
(-4.55939551e-20 5.07837525e-08 -8.66947691e-21)
(-1.37495408e-19 1.53145525e-07 -2.61439208e-20)
(-2.33711552e-19 2.60311482e-07 -4.44381845e-20)
(-3.39911065e-19 3.78593841e-07 -6.46295973e-20)
(-4.61933006e-19 5.14494255e-07 -8.78276179e-20)
(-6.05925515e-19 6.74857848e-07 -1.15200036e-19)
(-7.78415138e-19 8.66950033e-07 -1.47985923e-19)
(-9.86561264e-19 1.09873939e-06 -1.8754368e-19)
(-1.2382218e-18 1.37897028e-06 -2.35363078e-19)
(-1.54190595e-18 1.71710976e-06 -2.93055692e-19)
(-1.90675313e-18 2.1233236e-06 -3.62350121e-19)
(-2.34234259e-18 2.60826402e-06 -4.45054842e-19)
(-2.85840552e-18 3.1827492e-06 -5.43002377e-19)
(-3.46436334e-18 3.85724968e-06 -6.57960361e-19)
(-4.16870272e-18 4.64119358e-06 -7.91511663e-19)
(-4.97816228e-18 5.54206285e-06 -9.4489915e-19)
(-5.89675266e-18 6.56430435e-06 -1.11883959e-18)
(-6.92464096e-18 7.70809052e-06 -1.31331325e-18)
(-8.05696336e-18 8.96799997e-06 -1.52734183e-18)
(-9.28267878e-18 1.03317434e-05 -1.75877695e-18)
(-1.05836208e-17 1.17791098e-05 -2.00412907e-18)
(-1.19339414e-17 1.32813476e-05 -2.25847349e-18)
(-1.3300155e-17 1.48012127e-05 -2.51547122e-18)
(-1.46419664e-17 1.6293889e-05 -2.76753762e-18)
(-1.59140003e-17 1.77089107e-05 -3.00617698e-18)
(-1.70684226e-17 1.89930772e-05 -3.22247792e-18)
(-1.8058279e-17 2.00941659e-05 -3.4077337e-18)
(-1.88411977e-17 2.09650504e-05 -3.55412065e-18)
(-5.43150706e-20 6.04965812e-08 -1.03275236e-20)
(-1.64097831e-19 1.82772906e-07 -3.12014578e-20)
(-2.79399329e-19 3.11193943e-07 -5.31238571e-20)
(-4.07053949e-19 4.53369645e-07 -7.7393415e-20)
(-5.54454806e-19 6.17531708e-07 -1.05414655e-19)
(-7.29494655e-19 8.12467084e-07 -1.38686414e-19)
(-9.40357174e-19 1.04728499e-06 -1.78761813e-19)
(-1.19629368e-18 1.33228119e-06 -2.27395375e-19)
(-1.5076439e-18 1.67896041e-06 -2.86546241e-19)
(-1.88562157e-18 2.09979678e-06 -3.58336422e-19)
(-2.34252227e-18 2.60846475e-06 -4.45088954e-19)
(-2.89141242e-18 3.2194924e-06 -5.492671e-19)
(-3.54585077e-18 3.94795161e-06 -6.73419354e-19)
(-4.31928148e-18 4.80878325e-06 -8.20061822e-19)
(-5.22424355e-18 5.81591867e-06 -9.91525708e-19)
(-6.27127057e-18 6.98105744e-06 -1.18974652e-18)
(-7.46754595e-18 8.31217332e-06 -1.41600807e-18)
(-8.81532655e-18 9.81176283e-06 -1.67064489e-18)
(-1.0310197e-17 1.14749051e-05 -1.95271616e-18)
(-1.19393099e-17 1.32873056e-05 -2.25968207e-18)
(-1.36798345e-17 1.52235702e-05 -2.58712546e-18)
(-1.54979046e-17 1.72460341e-05 -2.92857405e-18)
(-1.73483957e-17 1.9304513e-05 -3.27548332e-18)
(-1.91758471e-17 2.13373257e-05 -3.61743538e-18)
(-2.09167564e-17 2.32738455e-05 -3.9425899e-18)
(-2.25032942e-17 2.50386309e-05 -4.2383881e-18)
(-2.38682179e-17 2.65568901e-05 -4.49246134e-18)
(-2.49504528e-17 2.77606904e-05 -4.69364292e-18)
(-6.44804677e-20 7.18177923e-08 -1.2260068e-20)
(-1.94624152e-19 2.16769885e-07 -3.70046953e-20)
(-3.31430499e-19 3.69140041e-07 -6.30148774e-20)
(-4.83581315e-19 5.38594992e-07 -9.19401685e-20)
(-6.60617823e-19 7.35757724e-07 -1.25592886e-19)
(-8.72083947e-19 9.7125245e-07 -1.65784859e-19)
(-1.12805836e-18 1.25629638e-06 -2.14427977e-19)
(-1.44050297e-18 1.60420045e-06 -2.73789702e-19)
(-1.82314653e-18 2.0302385e-06 -3.46469678e-19)
(-2.290435e-18 2.55047775e-06 -4.35198666e-19)
(-2.85889257e-18 3.18329324e-06 -5.43094807e-19)
(-3.54613262e-18 3.94826665e-06 -6.73472816e-19)
(-4.37091452e-18 4.86624981e-06 -8.2985093e-19)
(-5.3522093e-18 5.95832629e-06 -1.01576915e-18)
(-6.50831201e-18 7.24482576e-06 -1.23461592e-18)
(-7.85532362e-18 8.74363774e-06 -1.48933579e-18)
(-9.40534943e-18 1.04682104e-05 -1.78208494e-18)
(-1.11643164e-17 1.2425125e-05 -2.11381826e-18)
(-1.31294329e-17 1.46112723e-05 -2.48381502e-18)
(-1.52865245e-17 1.70108892e-05 -2.88919035e-18)
(-1.76075412e-17 1.95927846e-05 -3.32445092e-18)
(-2.00486724e-17 2.23082406e-05 -3.78117805e-18)
(-2.25495815e-17 2.50901579e-05 -4.24793211e-18)
(-2.5034285e-17 2.78540305e-05 -4.71046945e-18)
(-2.74141095e-17 3.05012326e-05 -5.15233989e-18)
(-2.95929059e-17 3.29248177e-05 -5.55588128e-18)
(-3.14742737e-17 3.50175551e-05 -5.90354902e-18)
(-3.29700102e-17 3.6681329e-05 -6.17942754e-18)
(-7.58435191e-20 8.4472646e-08 -1.44201773e-20)
(-2.28920931e-19 2.54965415e-07 -4.35243292e-20)
(-3.9022308e-19 4.34615041e-07 -7.41904643e-20)
(-5.70621433e-19 6.35525868e-07 -1.0848389e-19)
(-7.81483318e-19 8.70353129e-07 -1.4856326e-19)
(-1.03450385e-18 1.15211461e-06 -1.96648026e-19)
(-1.34272074e-18 1.49531956e-06 -2.55210438e-19)
(-1.72211634e-18 1.91775129e-06 -3.27278582e-19)
(-2.18939991e-18 2.43799629e-06 -4.16013241e-19)
(-2.76292763e-18 3.07646774e-06 -5.24879847e-19)
(-3.46542282e-18 3.85843278e-06 -6.58161335e-19)
(-4.32003188e-18 4.80962204e-06 -8.20204073e-19)
(-5.35267633e-18 5.95884856e-06 -1.0158576e-18)
(-6.58972641e-18 7.33542111e-06 -1.25002511e-18)
(-8.05760627e-18 8.96870816e-06 -1.5275791e-18)
(-9.78043057e-18 1.08855126e-05 -1.85290414e-18)
(-1.17777325e-17 1.31075479e-05 -2.22945902e-18)
(-1.40615365e-17 1.56481849e-05 -2.65922029e-18)
(-1.66326771e-17 1.85083581e-05 -3.14199425e-18)
(-1.94768333e-17 2.16721533e-05 -3.67469139e-18)
(-2.25605885e-17 2.5102422e-05 -4.25062871e-18)
(-2.58281829e-17 2.87371634e-05 -4.85898859e-18)
(-2.91997276e-17 3.24875347e-05 -5.48457665e-18)
(-3.25717342e-17 3.6238434e-05 -6.10802602e-18)
(-3.58207488e-17 3.98525426e-05 -6.70657083e-18)
(-3.88105652e-17 4.31783471e-05 -7.25544074e-18)
(-4.14028188e-17 4.60619257e-05 -7.72980314e-18)
(-4.34698335e-17 4.83612424e-05 -8.10702379e-18)
(-8.85107892e-20 9.85797805e-08 -1.68280686e-20)
(-2.67239192e-19 2.97638898e-07 -5.08079386e-20)
(-4.56020204e-19 5.07889359e-07 -8.6696545e-20)
(-6.68075072e-19 7.44051081e-07 -1.27005172e-19)
(-9.1710978e-19 1.02138187e-06 -1.74335907e-19)
(-1.21787981e-18 1.35630474e-06 -2.31488065e-19)
(-1.58699156e-18 1.7672987e-06 -3.01609131e-19)
(-2.04371452e-18 2.27580143e-06 -3.88347036e-19)
(-2.60872416e-18 2.90480806e-06 -4.95608414e-19)
(-3.3086037e-18 3.68388116e-06 -6.28408799e-19)
(-4.17097672e-18 4.64373142e-06 -7.91942825e-19)
(-5.22573317e-18 5.81758388e-06 -9.9180789e-19)
(-6.50962336e-18 7.24629188e-06 -1.23486405e-18)
(-8.05816673e-18 8.96933656e-06 -1.52768498e-18)
(-9.90946185e-18 1.10290712e-05 -1.87726211e-18)
(-1.20988595e-17 1.34648004e-05 -2.28997734e-18)
(-1.46567907e-17 1.63103681e-05 -2.77117458e-18)
(-1.76050403e-17 1.95900149e-05 -3.32444497e-18)
(-2.09513077e-17 2.33123274e-05 -3.95060633e-18)
(-2.46834766e-17 2.74638599e-05 -4.6466561e-18)
(-2.87634633e-17 3.20022852e-05 -5.40468812e-18)
(-3.31217991e-17 3.68503615e-05 -6.21100017e-18)
(-3.76540375e-17 4.18919289e-05 -7.04559731e-18)
(-4.222031e-17 4.69714117e-05 -7.88232069e-18)
(-4.66494389e-17 5.18983919e-05 -8.68981711e-18)
(-5.07486835e-17 5.64584527e-05 -9.43347478e-18)
(-5.43191889e-17 6.04303682e-05 -1.00782531e-17)
(-5.71756071e-17 6.36079336e-05 -1.05920673e-17)
(-1.02489538e-19 1.14147235e-07 -1.94850738e-20)
(-3.09560531e-19 3.4476967e-07 -5.88518635e-20)
(-5.28801027e-19 5.88939419e-07 -1.00528825e-19)
(-7.76128628e-19 8.6437749e-07 -1.47538825e-19)
(-1.06812263e-18 1.18953908e-06 -2.03028569e-19)
(-1.42289679e-18 1.58458326e-06 -2.70433114e-19)
(-1.86097021e-18 2.0723407e-06 -3.53639317e-19)
(-2.4060505e-18 2.67918342e-06 -4.57131506e-19)
(-3.08551532e-18 3.43555868e-06 -5.86078218e-19)
(-3.93181273e-18 4.37754642e-06 -7.46591063e-19)
(-4.97957299e-18 5.54364438e-06 -9.45166766e-19)
(-6.27350384e-18 6.98355587e-06 -1.19016907e-18)
(-7.858566e-18 8.74725927e-06 -1.48994874e-18)
(-9.781722e-18 1.08869621e-05 -1.85314758e-18)
(-1.20996263e-17 1.34656619e-05 -2.29012121e-18)
(-1.48624344e-17 1.65391397e-05 -2.80983979e-18)
(-1.81160463e-17 2.01584619e-05 -3.42027562e-18)
(-2.18975738e-17 2.43649373e-05 -4.12751729e-18)
(-2.62265425e-17 2.91803281e-05 -4.93410876e-18)
(-3.10972915e-17 3.45983871e-05 -5.83765964e-18)
(-3.6469317e-17 4.05741063e-05 -6.8291498e-18)
(-4.22585413e-17 4.70139953e-05 -7.89150978e-18)
(-4.83306668e-17 5.37686813e-05 -8.99870743e-18)
(-5.4498595e-17 6.06300357e-05 -1.01156874e-17)
(-6.05263188e-17 6.73355055e-05 -1.11995302e-17)
(-6.61415902e-17 7.35822097e-05 -1.22021036e-17)
(-7.10582101e-17 7.90517416e-05 -1.30741706e-17)
(-7.50060974e-17 8.34436237e-05 -1.37704603e-17)
(-1.17726628e-19 1.31115784e-07 -2.23810406e-20)
(-3.55720417e-19 3.96174338e-07 -6.76246566e-20)
(-6.08303939e-19 6.77473524e-07 -1.15637223e-19)
(-8.94463108e-19 9.96149176e-07 -1.70023548e-19)
(-1.23409285e-18 1.37434573e-06 -2.34558469e-19)
(-1.64913661e-18 1.83648231e-06 -3.13401428e-19)
(-2.16467589e-18 2.41046323e-06 -4.11300469e-19)
(-2.80996099e-18 3.12882278e-06 -5.33783357e-19)
(-3.61935718e-18 4.02977618e-06 -6.87330066e-19)
(-4.63331488e-18 5.15829801e-06 -8.79546051e-19)
(-5.89868592e-18 6.56647417e-06 -1.11920603e-18)
(-7.47066081e-18 8.31566076e-06 -1.41659778e-18)
(-9.40656713e-18 1.04695893e-05 -1.78231564e-18)
(-1.17793263e-17 1.31093457e-05 -2.2297578e-18)
(-1.46591685e-17 1.63130345e-05 -2.77161945e-18)
(-1.81189022e-17 2.01616521e-05 -3.42080967e-18)
(-2.22256333e-17 2.47298756e-05 -4.18882029e-18)
(-2.70409058e-17 3.00862162e-05 -5.08567557e-18)
(-3.26029248e-17 3.62732376e-05 -6.11655998e-18)
(-3.89198772e-17 4.33001121e-05 -7.280595e-18)
(-4.59536738e-17 5.11245221e-05 -8.56797062e-18)
(-5.36066356e-17 5.96378402e-05 -9.95781704e-18)
(-6.17099343e-17 6.8652265e-05 -1.14166468e-17)
(-7.00168169e-17 7.78932853e-05 -1.28979168e-17)
(-7.82045184e-17 8.7001814e-05 -1.43433074e-17)
(-8.58896258e-17 9.55512872e-05 -1.5686296e-17)
(-9.26595953e-17 0.000103082733 -1.68580881e-17)
(-9.81188755e-17 0.000109156087 -1.77952158e-17)
(-1.34109262e-19 1.49359773e-07 -2.5494477e-20)
(-4.05379808e-19 4.51475191e-07 -7.70617016e-20)
(-6.93963162e-19 7.7286131e-07 -1.31913844e-19)
(-1.02228143e-18 1.13847792e-06 -1.94307168e-19)
(-1.41397253e-18 1.57463384e-06 -2.68725185e-19)
(-1.89533189e-18 2.11058874e-06 -3.60149795e-19)
(-2.49670438e-18 2.78009956e-06 -4.74321358e-19)
(-3.25385017e-18 3.62293783e-06 -6.17991219e-19)
(-4.20928267e-18 4.68637646e-06 -7.99164983e-19)
(-5.41355719e-18 6.02662281e-06 -1.02733045e-18)
(-6.92634827e-18 7.71001903e-06 -1.31363678e-18)
(-8.81742538e-18 9.81413246e-06 -1.67104215e-18)
(-1.11660972e-17 1.24271451e-05 -2.11415473e-18)
(-1.40628485e-17 1.56496853e-05 -2.6594672e-18)
(-1.76108506e-17 1.95965184e-05 -3.32553057e-18)
(-2.19076726e-17 2.43762037e-05 -4.12940344e-18)
(-2.70451748e-17 3.00909849e-05 -5.08646895e-18)
(-3.31275494e-17 3.68568408e-05 -6.21366113e-18)
(-4.02178621e-17 4.47440106e-05 -7.51934648e-18)
(-4.83516612e-17 5.37921111e-05 -9.00583684e-18)
(-5.75018968e-17 6.39710993e-05 -1.0663086e-17)
(-6.75618828e-17 7.51623099e-05 -1.24660772e-17)
(-7.83260054e-17 8.71369959e-05 -1.43722847e-17)
(-8.94753677e-17 9.95403663e-05 -1.63205788e-17)
(-1.00573767e-16 0.000111887121 -1.82324171e-17)
(-1.11083884e-16 0.00012357947 -2.00165718e-17)
(-1.20410173e-16 0.000133954852 -2.15776421e-17)
(-1.27969213e-16 0.000142364205 -2.28274225e-17)
(-1.51460402e-19 1.68682019e-07 -2.87916867e-20)
(-4.58005301e-19 5.10078127e-07 -8.70614602e-20)
(-7.84873234e-19 8.74094243e-07 -1.49186271e-19)
(-1.15826817e-18 1.28989849e-06 -2.20139063e-19)
(-1.6059789e-18 1.78841747e-06 -3.05188739e-19)
(-2.15917359e-18 2.40433015e-06 -4.10237209e-19)
(-2.85416293e-18 3.17802668e-06 -5.42148103e-19)
(-3.73417998e-18 4.15758615e-06 -7.09074857e-19)
(-4.85119142e-18 5.40078999e-06 -9.20788755e-19)
(-6.26771271e-18 6.97714171e-06 -1.18899854e-18)
(-8.05853251e-18 8.96978894e-06 -1.52763903e-18)
(-1.0312223e-17 1.14772112e-05 -1.95309927e-18)
(-1.31320923e-17 1.46142904e-05 -2.48431661e-18)
(-1.66369654e-17 1.85131927e-05 -3.14280052e-18)
(-2.09605604e-17 2.33226838e-05 -3.95234128e-18)
(-2.62321768e-17 2.91866536e-05 -4.93516545e-18)
(-3.2612421e-17 3.62838469e-05 -6.11831111e-18)
(-4.02304436e-17 4.47580314e-05 -7.52165959e-18)
(-4.91860385e-17 5.47203166e-05 -9.15798258e-18)
(-5.95733912e-17 6.62755442e-05 -1.103716e-17)
(-7.13882633e-17 7.94190287e-05 -1.31492298e-17)
(-8.45258484e-17 9.40341698e-05 -1.54647803e-17)
(-9.87471979e-17 0.000109855111 -1.79304865e-17)
(-1.13652639e-16 0.000126437183 -2.04670697e-17)
(-1.28663177e-16 0.000143136224 -2.29698455e-17)
(-1.43032082e-16 0.000159121479 -2.53149019e-17)
(-1.55898886e-16 0.000173435672 -2.73712364e-17)
(-1.66394502e-16 0.000185111947 -2.90177023e-17)
(-1.69535637e-19 1.8881034e-07 -3.22261807e-20)
(-5.12858202e-19 5.71160512e-07 -9.74834171e-20)
(-8.79768255e-19 9.79762581e-07 -1.67213667e-19)
(-1.30055423e-18 1.4483294e-06 -2.47163541e-19)
(-1.80752164e-18 2.01281202e-06 -3.43455965e-19)
(-2.43719305e-18 2.71384387e-06 -4.63002774e-19)
(-3.23250801e-18 3.59918514e-06 -6.13913947e-19)
(-4.24509962e-18 4.72625293e-06 -8.05915895e-19)
(-5.53768567e-18 6.16478023e-06 -1.05078269e-18)
(-7.18656278e-18 7.99959241e-06 -1.36277303e-18)
(-9.28412463e-18 1.03334147e-05 -1.75905072e-18)
(-1.19412411e-17 1.32895299e-05 -2.26004712e-18)
(-1.52891966e-17 1.70139491e-05 -2.88969437e-18)
(-1.9480785e-17 2.1676644e-05 -3.67543486e-18)
(-2.46894343e-17 2.74705833e-05 -4.64777383e-18)
(-3.11043966e-17 3.46063805e-05 -5.83898702e-18)
(-3.89323018e-17 4.33140081e-05 -7.28290025e-18)
(-4.83548132e-17 5.37956707e-05 -9.00643378e-18)
(-5.95760417e-17 6.62785201e-05 -1.10376121e-17)
(-7.27199687e-17 8.09005267e-05 -1.33863915e-17)
(-8.78446413e-17 9.77262673e-05 -1.60469008e-17)
(-1.04870783e-16 0.000116667513 -1.89855447e-17)
(-1.23540333e-16 0.00013743713 -2.21360475e-17)
(-1.43377313e-16 0.000159505549 -2.53971869e-17)
(-1.63634582e-16 0.000182041554 -2.86309925e-17)
(-1.83289576e-16 0.000203907537 -3.16710771e-17)
(-2.01100748e-16 0.000223722285 -3.43398374e-17)
(-2.15755834e-16 0.000240025916 -3.64735203e-17)
(-1.88023506e-19 2.09397916e-07 -3.57387465e-20)
(-5.68994815e-19 6.33671535e-07 -1.08148163e-19)
(-9.77020223e-19 1.08805358e-06 -1.85686518e-19)
(-1.44670854e-18 1.61106384e-06 -2.74918378e-19)
(-2.01517793e-18 2.24400662e-06 -3.82875974e-19)
(-2.72471013e-18 3.03391954e-06 -5.17556255e-19)
(-3.62544931e-18 4.03657259e-06 -6.88421759e-19)
(-4.77825795e-18 5.31964277e-06 -9.0692358e-19)
(-6.25780039e-18 6.96614411e-06 -1.18705494e-18)
(-8.1558714e-18 9.0781343e-06 -1.54593115e-18)
(-1.05849127e-17 1.17806359e-05 -2.00437367e-18)
(-1.36815544e-17 1.52255906e-05 -2.58745056e-18)
(-1.76098601e-17 1.95954871e-05 -3.32488843e-18)
(-2.25637348e-17 2.51060547e-05 -4.25122097e-18)
(-2.87675835e-17 3.2007003e-05 -5.40546166e-18)
(-3.64741026e-17 4.0579556e-05 -6.83004541e-18)
(-4.59587805e-17 5.1130311e-05 -8.56892387e-18)
(-5.75029473e-17 6.39723504e-05 -1.06632922e-17)
(-7.13830689e-17 7.94133032e-05 -1.31483021e-17)
(-8.78483371e-17 9.7730403e-05 -1.60474394e-17)
(-1.07017407e-16 0.000119055618 -1.93537338e-17)
(-1.28889188e-16 0.000143387682 -2.30315237e-17)
(-1.53214142e-16 0.000170448929 -2.69975658e-17)
(-1.79479908e-16 0.000199669324 -3.11256871e-17)
(-2.06765435e-16 0.000230024188 -3.52357622e-17)
(-2.33708236e-16 0.000259997762 -3.91072473e-17)
(-2.58530528e-16 0.000287612284 -4.25033207e-17)
(-2.79217099e-16 0.000310625853 -4.52074348e-17)
(-2.06550315e-19 2.30028665e-07 -3.92583705e-20)
(-6.25280609e-19 6.96347998e-07 -1.18840111e-19)
(-1.07466173e-18 1.19677679e-06 -2.04230996e-19)
(-1.59376759e-18 1.77480255e-06 -3.02840524e-19)
(-2.22472509e-18 2.4773006e-06 -4.22646569e-19)
(-3.01586334e-18 3.35803287e-06 -5.72784217e-19)
(-4.02496556e-18 4.48126183e-06 -7.64147868e-19)
(-5.3227802e-18 5.92565431e-06 -1.01003197e-18)
(-6.99690546e-18 7.78860367e-06 -1.3268251e-18)
(-9.15610818e-18 1.01910406e-05 -1.73475802e-18)