/*--------------------------------*- C++ -*----------------------------------*\
| =========                 |                                                 |
| \\      /  F ield         | foam-extend: Open Source CFD                    |
|  \\    /   O peration     | Version:     4.1                                |
|   \\  /    A nd           | Web:         http://www.foam-extend.org         |
|    \\/     M anipulation  |                                                 |
\*---------------------------------------------------------------------------*/
FoamFile
{
    version     2.0;
    format      ascii;
    class       surfaceScalarField;
    location    "0.3";
    object      meshPhi;
}
// * * * * * * * * * * * * * * * * * * * * * * * * * * * * * * * * * * * * * //

dimensions      [0 3 -1 0 0 0 0];

internalField   nonuniform List<scalar> 
102656
(
3.25813406e-29
2.81727966e-13
-5.78241254e-21
-1.31664575e-28
8.50973915e-13
-5.78241447e-21
1.15648291e-20
1.44249137e-12
-1.15648331e-20
4.6259326e-20
2.07996565e-12
-5.78241887e-21
4.62593378e-20
2.78926428e-12
-5.78242136e-21
-4.62593473e-20
3.59617826e-12
-5.78242419e-21
4.62593609e-20
4.52665989e-12
5.78242693e-21
4.62593766e-20
5.60686438e-12
0
4.62594019e-20
6.8629621e-12
-5.78243566e-21
4.21104738e-27
8.32069254e-12
5.78244077e-21
-4.62594407e-20
1.00046362e-11
5.78244552e-21
4.62594687e-20
1.19371906e-11
-5.78245346e-21
1.85038016e-19
1.41372533e-11
0
9.2519072e-20
1.66186359e-11
-5.78246988e-21
0
1.9388266e-11
5.78247736e-21
-9.25192601e-20
2.24442659e-11
0
-2.54473027e-26
2.57740417e-11
-2.98072235e-27
2.88658237e-26
2.93525491e-11
0
0
3.31409397e-11
-5.78252783e-21
-9.25196461e-20
3.70858051e-11
5.78253738e-21
3.99205762e-26
4.11192341e-11
0
9.25199526e-20
4.51598634e-11
-1.15651295e-20
1.85040036e-19
4.91150397e-11
-5.78258386e-21
-2.77560311e-19
5.2884111e-11
-5.78259708e-21
-1.85040319e-19
5.63627478e-11
0
1.12650256e-25
5.94480674e-11
0
0
6.20442195e-11
-7.17530428e-27
6.40680241e-11
-7.4093537e-27
-1.85040694e-19
-5.78241259e-21
5.69332619e-13
0
0
1.71954679e-12
-5.78241453e-21
3.46944883e-20
2.91462541e-12
0
2.3129663e-20
4.2028775e-12
-1.15648378e-20
2.31296698e-20
5.63714159e-12
-5.78242157e-21
0
7.27012218e-12
1.15648485e-20
4.62593648e-20
9.15491866e-12
0
0
1.13451457e-11
-6.63622092e-28
-4.62593975e-20
1.38945809e-11
-5.78243625e-21
-4.62594195e-20
1.68562791e-11
5.78244152e-21
4.62594448e-20
2.02811043e-11
5.78244644e-21
4.625948e-20
2.42156464e-11
-5.78245466e-21
0
2.8699524e-11
5.78246098e-21
-9.25190877e-20
3.37621201e-11
0
-1.99388443e-26
3.94188587e-11
1.15649614e-20
-2.30322257e-26
4.56672053e-11
0
9.25193858e-20
5.2482659e-11
0
9.25194946e-20
5.98150841e-11
0
9.25196092e-20
6.75858016e-11
-5.78253241e-21
9.25197278e-20
7.56859002e-11
-4.46403274e-27
0
8.39762238e-11
5.78256191e-21
-9.2519922e-20
9.22894271e-11
0
1.85040117e-19
1.00434358e-10
-1.73477688e-20
-5.29733145e-26
1.08202826e-10
5.78259922e-21
0
1.15378551e-10
-5.78261859e-21
0
1.21747833e-10
-5.7826229e-21
0
1.27111204e-10
-5.78263982e-21
1.3129516e-10
-5.78264739e-21
0
5.78241262e-21
8.73512408e-13
5.78241262e-21
-1.15648275e-20
2.638196e-12
5.7824147e-21
-2.18113827e-28
4.47210031e-12
0
-6.03561857e-28
6.45061939e-12
5.7824192e-21
7.93125043e-28
8.65639853e-12
0
9.25187061e-20
1.11720223e-11
-1.15648501e-20
0
1.40809414e-11
0
-4.62593845e-20
1.74677509e-11
0
4.6259405e-20
2.14177182e-11
5.7824371e-21
9.25188671e-20
2.6015464e-11
-5.78244371e-21
0
3.13427087e-11
-5.78245038e-21
4.62595019e-20
3.74750257e-11
-1.53342377e-27
9.251905e-20
4.44775875e-11
-1.82470515e-27
0
5.23999655e-11
0
0
6.1270138e-11
5.78248571e-21
0
7.10879874e-11
-5.78249781e-21
1.85038903e-19
8.18187009e-11
-5.78251449e-21
9.25196221e-20
9.33866346e-11
-3.88249047e-27
-9.25196444e-20
1.05670322e-10
-4.40440746e-27
1.85039709e-19
1.18499389e-10
0
9.25199458e-20
1.3165415e-10
5.78257331e-21
1.85040157e-19
1.4486856e-10
-5.78259602e-21
-1.85040471e-19
1.57837001e-10
-5.78261294e-21
5.94567351e-26
1.70225035e-10
-1.15652511e-20
-1.26465418e-25
1.81683847e-10
5.78263651e-21
0
1.91867607e-10
1.1565307e-20
-1.85041368e-19
2.00452546e-10
-5.78266886e-21
2.07156187e-10
5.7826777e-21
1.85041346e-19
-5.78241276e-21
1.20723769e-12
-3.85947393e-29
1.15648277e-20
3.6463862e-12
-1.16595412e-28
0
6.18282674e-12
-1.1564835e-20
-2.31296665e-20
8.92336315e-12
-1.15648399e-20
8.75456622e-28
1.19853797e-11
5.78242287e-21
0
1.54865629e-11
5.78242622e-21
0
1.95464037e-11
0
-4.62593951e-20
2.42867645e-11
0
9.25188456e-20
2.98313652e-11
0
-9.25188972e-20
3.6304037e-11
-5.78244767e-21
0
4.38256055e-11
0
1.38778568e-19
5.2509293e-11
-5.78246432e-21
0
6.24545945e-11
-5.78247464e-21
0
7.37396804e-11
0
-9.25193474e-20
8.64125198e-11
-2.90767199e-27
0
1.00481103e-10
5.78251128e-21
0
1.15903351e-10
5.78253114e-21
9.25197596e-20
1.32577536e-10
0
1.85039836e-19
1.50334222e-10
-5.78257342e-21
4.93849716e-26
1.68930925e-10
5.78258266e-21
-9.25201978e-20
1.88050686e-10
-5.78260942e-21
-9.25203619e-20
2.07305709e-10
-7.22074578e-27
1.85041044e-19
2.26246834e-10
-7.91147627e-27
0
2.4437922e-10
5.78266315e-21
0
2.61183834e-10
5.78268129e-21
0
2.76143678e-10
5.78269749e-21
0
2.88772845e-10
0
2.98645967e-10
5.78272197e-21
0
0
1.58337055e-12
-4.34990999e-29
1.15648283e-20
4.78325342e-12
5.78241544e-21
-2.70764834e-28
8.11420083e-12
-2.23360002e-28
-2.31296692e-20
1.17207141e-11
5.7824214e-21
-4.6259352e-20
1.57620725e-11
-5.78242483e-21
-2.31296838e-20
2.03986993e-11
5.78242825e-21
4.62593873e-20
2.57945063e-11
-5.7824335e-21
4.62594106e-20
3.21179543e-11
5.78243815e-21
0
3.95416238e-11
-5.78244564e-21
-4.6259471e-20
4.82400684e-11
-5.78245345e-21
7.39141635e-27
5.83857356e-11
0
4.62595633e-20
7.01427625e-11
5.78247343e-21
-9.25192341e-20
8.3658531e-11
-5.78248595e-21
-9.25193318e-20
9.90529975e-11
-2.92744037e-27
9.25194667e-20
1.16406007e-10
-1.15650301e-20
-3.51981599e-26
1.35743065e-10
-5.78253527e-21
9.25198254e-20
1.57020369e-10
0
4.70695439e-26
1.80110229e-10
0
-1.85040321e-19
2.04788377e-10
0
-9.25203039e-20
2.30724918e-10
0
9.25206427e-20
2.57480826e-10
5.78264712e-21
9.25208617e-20
2.84511751e-10
-1.1565356e-20
0
3.11180562e-10
5.78269973e-21
1.85042473e-19
3.36779287e-10
-5.78273576e-21
1.85042746e-19
3.60560098e-10
5.78274875e-21
0
3.81773792e-10
5.78276997e-21
0
3.99712964e-10
-5.78280082e-21
4.13756102e-10
-1.33122836e-26
1.85043732e-19
5.782413e-21
2.01482557e-12
0
1.15648291e-20
6.08812188e-12
0
2.31296646e-20
1.03340718e-11
5.78241912e-21
-2.31296727e-20
1.49432883e-11
-1.15648454e-20
1.15109161e-27
2.01265357e-11
1.15648528e-20
6.93890727e-20
2.60972898e-11
0
-4.62594031e-20
3.30753055e-11
-5.78243712e-21
4.62594311e-20
4.12884784e-11
-1.15648875e-20
5.8574561e-27
5.09727053e-11
-1.1564902e-20
4.62595115e-20
6.23694119e-11
5.7824595e-21
0
7.57204171e-11
-2.00472527e-27
4.62596069e-20
9.12598151e-11
-1.15649688e-20
9.25193689e-20
1.09202627e-10
0
-3.09264783e-26
1.2973015e-10
-3.54775838e-27
0
1.52972173e-10
-4.22881249e-27
9.25198549e-20
1.78986644e-10
-5.78256327e-21
-1.85040188e-19
2.07737775e-10
0
-1.85040605e-19
2.39074175e-10
0
6.71372511e-26
2.72709102e-10
-1.15652919e-20
-9.25208217e-20
3.08205432e-10
1.15653489e-20
-9.25211838e-20
3.44968236e-10
-1.15654269e-20
3.70085703e-19
3.82247812e-10
-1.1565509e-20
9.25217588e-20
4.19155532e-10
-1.15655684e-20
0
4.54693855e-10
-1.36366113e-26
0
4.87800288e-10
1.15657013e-20
0
5.17403207e-10
5.78287179e-21
1.85045367e-19
5.42485444e-10
5.78289603e-21
5.62149858e-10
1.15658474e-20
0
-5.78241328e-21
2.51463864e-12
0
-2.34258434e-28
7.60074085e-12
-5.78241689e-21
1.15648338e-20
1.29112301e-11
5.78242033e-21
-1.01119896e-27
1.86935777e-11
-5.78242474e-21
-2.31296845e-20
2.52223351e-11
5.78242887e-21
2.31296992e-20
3.27773896e-11
-5.78243502e-21
-4.6259423e-20
4.16492787e-11
5.78244067e-21
-5.59746079e-27
5.21423077e-11
-5.7824484e-21
-4.62594976e-20
6.45750303e-11
5.78245772e-21
0
7.9277606e-11
-1.15649398e-20
0
9.65855617e-11
-5.78248476e-21
0
1.16829432e-10
0
0
1.40319817e-10
-5.78252072e-21
9.25197001e-20
1.67327577e-10
-4.34807604e-27
9.25199176e-20
1.98059273e-10
5.78256452e-21
0
2.32628417e-10
1.15651871e-20
9.25204412e-20
2.71023815e-10
-7.31891872e-27
7.3667354e-26
3.13077061e-10
0
8.49520736e-26
3.5843211e-10
0
0
4.06520715e-10
-5.78274515e-21
-1.85043705e-19
4.56548083e-10
0
1.22254183e-25
5.07493258e-10
-5.78285103e-21
2.69793774e-25
5.58128187e-10
5.78288314e-21
-9.25230466e-20
6.07058013e-10
-5.78294621e-21
1.85046774e-19
6.52782852e-10
0
1.85047036e-19
6.93778356e-10
1.15660406e-20
-3.7009538e-19
7.28589097e-10
-2.15225584e-26
7.55926007e-10
-5.78309157e-21
-3.64621851e-25
-5.78241363e-21
3.09591656e-12
5.78241363e-21
0
9.36117984e-12
5.78241756e-21
1.1564836e-20
1.59153345e-11
1.15648436e-20
0
2.30759928e-11
1.15648529e-20
1.58068875e-27
3.11968259e-11
5.78243186e-21
2.31297067e-20
4.06409877e-11
-9.09411212e-28
0
5.17888341e-11
5.78244598e-21
0
6.50429835e-11
0
1.67407079e-26
8.08299433e-11
5.78246484e-21
4.6259609e-20
9.95975697e-11
0
-1.38779014e-19
1.21807787e-10
-2.91690572e-27
4.62597896e-20
1.47923712e-10
-5.78251705e-21
0
1.78390338e-10
0
0
2.13608184e-10
-5.35227033e-27
-5.64096726e-26
2.53899753e-10
5.78260101e-21
0
2.99469346e-10
-7.73003521e-27
0
3.50357696e-10
-1.15653798e-20
9.31448727e-26
4.06394068e-10
5.78272819e-21
9.25219707e-20
4.67149833e-10
0
9.25223467e-20
5.31898905e-10
5.7828515e-21
-9.2522714e-20
5.99591591e-10
5.78289696e-21
1.57857211e-25
6.68848915e-10
-5.78297777e-21
-9.25238936e-20
7.37983962e-10
5.78302191e-21
-9.25242024e-20
8.05054942e-10
-2.28979948e-26
1.85049303e-19
8.67951313e-10
1.15662835e-20
-1.85050095e-19
9.24509669e-10
0
-1.85051213e-19
9.72650871e-10
-5.78326807e-21
1.01052506e-09
-5.78327561e-21
-1.8505124e-19
-5.78241396e-21
3.77162257e-12
0
0
1.14092932e-11
-1.15648375e-20
-3.46945129e-20
1.94161975e-11
-5.78242428e-21
-2.31296883e-20
2.81959714e-11
1.15648579e-20
-2.31297008e-20
3.82001053e-11
-5.78243616e-21
2.31297199e-20
4.98959434e-11
0
-4.62594757e-20
6.37774207e-11
-5.78245364e-21
4.62595256e-20
8.03732139e-11
-5.78246536e-21
-4.62595867e-20
1.00250363e-10
5.78247745e-21
4.62596737e-20
1.24012185e-10
0
-9.25195184e-20
1.52290241e-10
-3.52524199e-27
1.38779618e-19
1.85728849e-10
0
0
2.24960612e-10
-5.78257494e-21
5.79076884e-26
2.70571902e-10
0
0
3.23057638e-10
-5.7826542e-21
0
3.82765704e-10
-9.63307653e-27
0
4.49832562e-10
1.15654982e-20
9.25221603e-20
5.24113331e-10
-1.36140246e-26
-2.77567993e-19
6.05111611e-10
-1.59550357e-26
-9.25230816e-20
6.91916649e-10
5.78295458e-21
-9.25240782e-20
7.83157554e-10
-5.78305573e-21
2.04104598e-25
8.76985524e-10
0
2.2723718e-25
9.71094842e-10
-5.78322963e-21
0
1.06279107e-09
-5.78331606e-21
0
1.14911002e-09
5.78333325e-21
1.85054139e-19
1.22698405e-09
0
1.85055041e-19
1.29344354e-09
-1.15670377e-20
1.34583321e-09
-3.87777957e-26
3.70112064e-19
-5.78241433e-21
4.55407957e-12
-5.78241433e-21
2.31296683e-20
1.37835862e-11
-5.78241992e-21
-1.15648405e-20
2.34823883e-11
5.78242585e-21
0
3.41580811e-11
-5.7824325e-21
2.312971e-20
4.63824307e-11
0
2.31297328e-20
6.07528657e-11
5.78244842e-21
4.62595089e-20
7.79058651e-11
1.63392961e-27
-9.42894317e-27
9.85307111e-11
0
1.19670333e-26
1.23376502e-10
0
9.25195004e-20
1.53250566e-10
-5.78251414e-21
9.25196935e-20
1.89010493e-10
-5.78254464e-21
4.6259982e-20
2.31546359e-10
5.78257231e-21
9.25203472e-20
2.81750444e-10
5.78260424e-21
9.25207472e-20
3.40472808e-10
0
-1.85042349e-19
4.0846116e-10
0
0
4.86284867e-10
5.78277479e-21
-9.25223909e-20
5.74244564e-10
0
-1.85046047e-19
6.72271121e-10
0
-9.25237074e-20
7.79820655e-10
-1.15660493e-20
-9.25245322e-20
8.9577604e-10
-2.35759781e-26
1.85051285e-19
1.01836912e-09
-2.72018017e-26
9.25265849e-20
1.1451405e-09
-3.1011649e-26
9.25275354e-20
1.27295435e-09
-3.49095186e-26
9.25284624e-20
1.39808304e-09
-5.78358828e-21
0
1.51636974e-09
1.73510165e-20
0
1.62346614e-09
0
0
1.71512868e-09
-4.87671408e-26
1.78754238e-09
-5.78396178e-21
1.85062456e-19
5.78241464e-21
5.45319415e-12
0
-2.31296717e-20
1.65184261e-11
0
6.6178105e-28
2.81792948e-11
0
0
4.10631809e-11
1.15648716e-20
2.52735206e-27
5.58897967e-11
0
-4.62594915e-20
7.34197174e-11
-5.78245602e-21
0
9.4465631e-11
0
9.25192495e-20
1.19919568e-10
-2.47358348e-27
1.42077477e-26
1.50765639e-10
0
-4.6259803e-20
1.88076576e-10
-5.78253375e-21
4.62599584e-20
2.33008397e-10
-5.78256593e-21
9.2520309e-20
2.86781603e-10
-5.78260536e-21
9.25206583e-20
3.50644498e-10
-7.96747554e-27
9.25212327e-20
4.25817334e-10
-1.15654122e-20
0
5.13413514e-10
0
-1.8504493e-19
6.14337067e-10
0
-1.56644438e-25
7.29157249e-10
-1.79153782e-26
-9.25240714e-20
8.5796436e-10
1.15661049e-20
-9.25252871e-20
1.00021438e-09
0
2.5802393e-25
1.15457657e-09
5.78328988e-21
0
1.31880442e-09
-3.47448109e-26
3.39588211e-25
1.48965574e-09
5.7835808e-21
-1.85059588e-19
1.66288967e-09
4.50953295e-26
1.85062451e-19
1.8333662e-09
5.78393921e-21
-3.70129574e-19
1.99526501e-09
-5.78409227e-21
0
2.14242382e-09
-1.15684057e-20
0
2.26877399e-09
0
2.36882701e-09
-6.72245397e-26
1.85070477e-19
-1.15648303e-20
6.48552952e-12
0
-1.15648379e-20
1.9653674e-11
5.78242222e-21
0
3.35603513e-11
0
-4.6259421e-20
4.89905158e-11
-5.7824394e-21
2.92006795e-27
6.68513795e-11
5.78244877e-21
4.62595235e-20
8.8094129e-11
0
0
1.13739057e-10
5.78247696e-21
4.62596755e-20
1.44936293e-10
0
1.67494336e-26
1.82974815e-10
0
4.62599406e-20
2.29268044e-10
-4.76372046e-27
0
2.85361566e-10
0
0
3.52916096e-10
5.78263596e-21
-9.25210907e-20
4.33662923e-10
0
-9.25217e-20
5.29336382e-10
0
-9.25225598e-20
6.41572028e-10
0
-9.25232898e-20
7.7177034e-10
-1.15659099e-20
9.25242934e-20
9.20925062e-10
1.15661247e-20
2.33762564e-25
1.08942062e-09
0
0
1.27680497e-09
-3.19872124e-26
9.25285086e-20
1.4815567e-09
5.7835591e-21
0
1.7008754e-09
5.78370827e-21
-2.77594125e-19
1.93053364e-09
0
0
2.16483469e-09
-5.8049055e-26
-9.25347094e-20
2.39671917e-09
1.15687122e-20
0
2.61805302e-09
-5.78459723e-21
1.8507538e-19
2.82010572e-09
-5.78478986e-21
0
2.994191e-09
5.78495737e-21
3.13240015e-09
-5.78509126e-21
-1.85079523e-19
5.78241543e-21
7.65822146e-12
5.78241556e-21
-1.15648399e-20
2.32117037e-11
0
1.15648485e-20
3.96719392e-11
1.15648653e-20
0
5.80209413e-11
1.15648855e-20
3.34207077e-27
7.93802025e-11
-5.78245553e-21
4.62595533e-20
1.04923881e-10
-1.9463311e-27
4.62596464e-20
1.35946862e-10
-5.78248949e-21
4.62597376e-20
1.73934084e-10
-5.78250995e-21
-4.62598867e-20
2.20535347e-10
-5.78254335e-21
4.62600296e-20
2.77585397e-10
-5.78258109e-21
0
3.47145946e-10
0
4.62604846e-20
4.31459817e-10
-9.08344242e-27
-1.02382946e-25
5.32905193e-10
5.78275981e-21
9.25224737e-20
6.53922563e-10
5.78283435e-21
0
7.96883256e-10
5.78293863e-21
-1.96297324e-25
9.63911749e-10
5.78306364e-21
-9.25258649e-20
1.15665345e-09
0
9.25273974e-20
1.37599663e-09
-5.7834173e-21
0
1.62174447e-09
-5.78362214e-21
9.25315025e-20
1.89226352e-09
-5.78385295e-21
9.2533217e-20
2.18414941e-09
1.15681594e-20
5.56699593e-25
2.49196561e-09
-5.78431697e-21
-9.2537813e-20
2.80812363e-09
-5.78466915e-21
1.85078854e-19
3.12297612e-09
-8.39903317e-26
0
3.42518376e-09
-9.33432427e-26
1.69854394e-24
3.70238391e-09
-1.02033912e-25
0
3.94213166e-09
0
4.13301019e-09
-5.78592298e-21
0
0
8.9706885e-12
-5.78241619e-21
1.15648413e-20
2.72022257e-11
-4.61496806e-28
-9.70817598e-28
4.65472809e-11
5.78243491e-21
0
6.82065275e-11
-1.15648935e-20
3.78323358e-27
9.35468233e-11
0
4.62595943e-20
1.24028817e-10
-2.20945206e-27
-9.25193814e-20
1.61294305e-10
5.78249757e-21
0
2.07209123e-10
5.78252447e-21
-4.62599573e-20
2.63875032e-10
-5.78256363e-21
-4.62601219e-20
3.33700469e-10
0
9.25208273e-20
4.19378894e-10
1.15653217e-20
0
5.23880154e-10
-5.78274656e-21
9.25221546e-20
6.5046088e-10
0
0
8.02522606e-10
-5.78291586e-21
-9.25244089e-20
9.83459102e-10
0
9.25255797e-20
1.19643413e-09
5.7832007e-21
1.85054396e-19
1.44406659e-09
-5.78338701e-21
9.25294487e-20
1.72806609e-09
5.78360645e-21
-1.85062535e-19
2.04876367e-09
5.7839102e-21
-1.85067961e-19
2.4045878e-09
-1.73525694e-20
0
2.79154111e-09
0
0
3.2027552e-09
5.7848238e-21
1.8508635e-19
3.62822848e-09
-9.48436762e-26
3.7018345e-19
4.05486136e-09
5.78557404e-21
1.85098682e-19
4.46689896e-09
0
1.85104176e-19
4.84685107e-09
0
0
5.17686995e-09
1.15732033e-20
5.44043881e-09
0
-2.47724007e-24
-1.68492694e-28
1.04276298e-11
1.15648331e-20
-2.31296881e-20
3.16361048e-11
5.78242663e-21
1.1564856e-20
5.41967188e-11
-8.84643966e-28
-3.09143707e-27
7.95618732e-11
0
-2.31297707e-20
1.09395449e-10
-5.78246718e-21
4.62596325e-20
1.45504456e-10
-2.48361962e-27
-1.5100217e-26
1.89925442e-10
-3.31114044e-27
4.62598749e-20
2.44979806e-10
-5.78254409e-21
-4.62600535e-20
3.1335433e-10
5.78257946e-21
-4.62602475e-20
3.98145478e-10
-1.15652754e-20
-4.62606137e-20
5.02852711e-10
5.78270448e-21
-4.62610474e-20
6.31449889e-10
-1.24402496e-26
-1.85045709e-19
7.88281283e-10
0
-9.25240961e-20
9.77974884e-10
-1.15660343e-20
0
1.20537691e-09
-2.56644021e-26
-2.86652789e-25
1.47512536e-09
1.15667148e-20
9.25290257e-20
1.79124817e-09
5.78358986e-21
4.37456532e-25
2.15674684e-09
0
-9.25342096e-20
2.5729167e-09
-5.78425107e-21
-9.25373866e-20
3.03857689e-09
0
1.85083378e-19
3.54926787e-09
5.78507069e-21
9.25456645e-20
4.09651397e-09
-5.78544465e-21
9.2549848e-20
4.66731345e-09
1.15719957e-20
-9.25540902e-20
5.24402851e-09
-5.78658455e-21
3.70230196e-19
5.8048694e-09
-1.54733915e-25
0
6.32512726e-09
-1.70960028e-25
1.8513033e-19
6.77917886e-09
5.78784887e-21
7.14306485e-09
0
-3.23070696e-24
-5.78241719e-21
1.20259332e-11
0
-1.15648454e-20
3.65038957e-11
-5.78242866e-21
-1.18933833e-27
6.26082576e-11
-5.78244109e-21
2.31297465e-20
9.20821341e-11
1.15649081e-20
4.6996859e-27
1.269331e-10
0
-4.62596644e-20
1.69362084e-10
5.78249252e-21
-1.68797238e-26
2.21868313e-10
5.78251995e-21
0
2.87344328e-10
-1.15651204e-20
4.62601824e-20
3.69171333e-10
-6.45513776e-27
-4.62604172e-20
4.71267873e-10
0
-4.62607561e-20
5.98185622e-10
5.78274611e-21
-9.2522438e-20
7.55124038e-10
0
9.25236269e-20
9.47835542e-10
-5.78297151e-21
9.2525038e-20
1.18267742e-09
5.78310629e-21
-2.70323235e-25
1.46638297e-09
0
0
1.80553986e-09
5.78357117e-21
9.25311097e-20
2.20621839e-09
-5.78386791e-21
5.29234332e-25
2.67340901e-09
-5.78422477e-21
6.49692851e-25
3.21004662e-09
5.78457382e-21
-9.2541728e-20
3.81590923e-09
0
-9.25472728e-20
4.48642053e-09
-1.08380048e-25
-9.25513802e-20
5.21145304e-09
-5.78632408e-21
-9.25580608e-20
5.97441057e-09
0
-1.8512604e-19
6.75181225e-09
5.78770249e-21
-1.85135351e-19
7.51371342e-09
-1.97624789e-25
-1.85145325e-19
8.22528666e-09
-5.78907928e-21
-1.85157826e-19
8.84970381e-09
-1.15791147e-20
9.35208675e-09
-2.55469477e-25
1.85164562e-19
-5.78241766e-21
1.37565024e-11
0
-1.1564848e-20
4.17784157e-11
-5.78243009e-21
-1.15648624e-20
7.17373963e-11
-1.05576876e-27
-2.31297591e-20
1.05705639e-10
5.7824578e-21
1.02788896e-26
1.46081498e-10
5.78247654e-21
-4.6259708e-20
1.95516849e-10
5.78250031e-21
0
2.57051753e-10
-4.06890264e-27
0
3.34243933e-10
-5.42385632e-27
0
4.3129374e-10
0
9.25211975e-20
5.53155251e-10
-5.78269892e-21
-4.62610033e-20
7.05644338e-10
-5.78278867e-21
-4.62615215e-20
8.95445254e-10
-5.78290401e-21
0
1.13017207e-09
-5.78305148e-21
0
1.41845953e-09
5.78321179e-21
-9.25281491e-20
1.76953647e-09
-3.50591672e-26
-1.85061504e-19
2.19253115e-09
-1.15674947e-20
-9.25339381e-20
2.69631261e-09
1.15682064e-20
9.25377923e-20
3.2889016e-09
-7.118063e-26
-1.85083973e-19
3.97587514e-09
-5.78509908e-21
1.85095476e-19
4.75888784e-09
-1.09053809e-25
1.16262045e-24
5.63395792e-09
0
-9.25592931e-20
6.58952812e-09
-5.78724735e-21
1.62974611e-24
7.60493529e-09
0
9.25737926e-20
8.64940373e-09
-2.19453099e-25
1.85166483e-19
9.68215407e-09
-5.79002065e-21
1.85175877e-19
1.06542719e-08
0
0
1.1512761e-08
-1.15832045e-20
1.22066031e-08
1.1584526e-20
0
-2.13607747e-28
1.56035497e-11
-2.13607747e-28
-8.75822436e-28
4.74120424e-11
5.78243069e-21
1.15648665e-20
8.15036158e-11
5.78244471e-21
0
1.20316546e-10
5.78246115e-21
-2.31298088e-20
1.66686424e-10
-5.78248148e-21
2.31298749e-20
2.23774682e-10
0
0
2.9524054e-10
1.15650823e-20
-2.70738138e-26
3.85411655e-10
0
4.62604206e-20
4.99454181e-10
1.15652936e-20
-4.6260738e-20
6.435377e-10
1.1565447e-20
-4.62611978e-20
8.24987286e-10
-5.78283039e-21
-4.6261794e-20
1.05239481e-09
-5.78294423e-21
0
1.33569689e-09
0
-9.25268048e-20
1.68625845e-09
5.78335142e-21
-1.85059128e-19
2.11641955e-09
0
9.25322104e-20
2.63896935e-09
-5.78397833e-21
-5.91673583e-25
3.26699288e-09
0
7.47140052e-25
4.01243927e-09
0
9.34378202e-25
4.88462134e-09
-1.05094891e-25
-9.25536724e-20
5.88878872e-09
-1.30671039e-25
-9.25600665e-20
7.0228967e-09
-1.60628314e-25
-9.25685952e-20
8.27463021e-09
5.78832465e-21
-9.25779354e-20
9.61916159e-09
5.78924657e-21
-1.85180283e-19
1.10170443e-08
5.79044582e-21
-1.85200753e-19
1.24134782e-08
0
-1.85220096e-19
1.3740156e-08
0
1.8523692e-19
1.49207328e-08
0
1.58800728e-08
-4.24830286e-25
0
-5.78241839e-21
1.75440758e-11
5.78241817e-21
1.15648502e-20
5.33350115e-11
0
1.45748098e-27
9.17874131e-11
0
2.31297701e-20
1.35739475e-10
5.7824639e-21
2.31298245e-20
1.88507371e-10
-5.78248561e-21
4.62597634e-20
2.53818247e-10
5.78251351e-21
0
3.36026684e-10
-5.78254997e-21
4.62601764e-20
4.40335286e-10
-5.7826043e-21
-4.62604352e-20
5.73022057e-10
-5.78266973e-21
0
7.41671951e-10
0
1.37608897e-25
9.55403586e-10
-1.50824145e-26
0
1.22507219e-09
5.78299762e-21
0
1.56342695e-09
-2.63365782e-26
0
1.9851811e-09
1.15668522e-20
1.85061144e-19
2.50666868e-09
5.78373601e-21
-1.85068754e-19
3.14567239e-09
-5.85993105e-26
9.25392324e-20
3.92067589e-09
-5.78478113e-21
-9.25440508e-20
4.84917938e-09
-1.15705989e-20
9.25529709e-20
5.94653312e-09
-5.78613795e-21
9.25602276e-20
7.22338512e-09
-1.54343713e-25
0
8.68146089e-09
-1.91810015e-25
-9.25792841e-20
1.03094691e-08
5.78931651e-21
9.25939333e-20
1.20791816e-08
1.15818031e-20
-9.26045114e-20
1.39417081e-08
5.792336e-21
-3.70471509e-19
1.58248837e-08
-5.79438223e-21
0
1.76342133e-08
-5.79607589e-21
-8.41427344e-24
1.92596717e-08
-5.01790608e-25
2.05895376e-08
5.79893721e-21
0
1.15648368e-20
1.95476871e-11
-5.78241861e-21
0
5.94547885e-11
-5.78243305e-21
-2.31297364e-20
1.02428962e-10
-5.78244768e-21
-4.38160939e-27
1.51736705e-10
-1.15649354e-20
2.31298382e-20
2.1121202e-10
0
4.62597852e-20
2.85197536e-10
-5.78251804e-21
0
3.7881258e-10
1.15651135e-20
4.62601955e-20
4.98232905e-10
0
4.136274e-26
6.50987759e-10
0
-4.62609188e-20
8.46274201e-10
-1.20970653e-26
-4.62615382e-20
1.0952807e-09
5.78288629e-21
-9.25244641e-20
1.41150073e-09
-5.78308741e-21
0
1.81100192e-09
-2.86316079e-26
9.25290451e-20
2.31258804e-09
-5.78356061e-21
0
2.93774298e-09
-5.78392439e-21
-9.25365476e-20
3.71037745e-09
-5.78432799e-21
0
4.6558104e-09
5.7849063e-21
1.85097266e-19
5.79958475e-09
-5.78563675e-21
-9.25544684e-20
7.16593309e-09
5.7865495e-21
1.60247721e-24
8.77363521e-09
-5.78785144e-21
-2.77734249e-19
1.06310318e-08
1.15782798e-20
0
1.27308098e-08
-1.15815361e-20
-9.26069122e-20
1.5043812e-08
-5.79281449e-21
-9.26241383e-20
1.75126404e-08
-4.12972004e-25
1.8528435e-19
2.00452862e-08
0
0
2.25131044e-08
5.79896752e-21
1.85362309e-19
2.47578114e-08
5.80106889e-21
2.66110757e-08
-6.96380232e-25
-1.85376617e-19
0
2.15768639e-11
-5.7824187e-21
-1.15648524e-20
6.56568202e-11
-7.17253995e-28
0
1.13229175e-10
-1.2490255e-27
-2.31297817e-20
1.68009151e-10
0
-2.31298298e-20
2.34376454e-10
0
-2.31298989e-20
3.1732832e-10
-1.15650449e-20
0
4.2280572e-10
5.78256085e-21
-3.18509235e-26
5.5804112e-10
0
-4.62605557e-20
7.31937644e-10
-5.78268629e-21
4.62611106e-20
9.55483418e-10
-1.26298528e-26
0
1.24219623e-09
-5.78292718e-21
-1.0440759e-25
1.60858082e-09
-2.27919633e-26
-9.25267691e-20
2.07456226e-09
5.78333655e-21
1.8505932e-19
2.66383132e-09
-4.06206634e-26
-4.91692725e-25
3.40400278e-09
-5.78404785e-21
-6.48295655e-25
4.3264636e-09
-5.78457357e-21
0
5.46566069e-09
-1.15704133e-20
1.10772245e-24
6.85772396e-09
-1.22371929e-25
-1.85121194e-19
8.53836299e-09
-1.58719091e-25
9.25742614e-20
1.05390813e-08
5.78840237e-21
-9.25868695e-20
1.28803767e-08
5.78978428e-21
0
1.5562842e-08
0
0
1.85609276e-08
0
-9.26510104e-20
2.18140503e-08
0
1.03891149e-23
2.52112375e-08
-5.80053909e-21
-1.85403437e-19
2.85822207e-08
-8.572084e-21
1.85450555e-19
3.17010366e-08
-1.13236232e-20
3.43097174e-08
3.11980737e-22
1.85488263e-19
5.78241841e-21
2.3587756e-11
5.78241864e-21
0
7.18069258e-11
5.78243245e-21
-2.31297372e-20
1.23953691e-10
5.7824492e-21
-4.44436065e-27
1.84201952e-10
0
-4.62596531e-20
2.57492298e-10
5.78249001e-21
-2.31299083e-20
3.49500602e-10
0
0
4.67027708e-10
0
0
6.18422947e-10
0
-9.25211534e-20
8.14056737e-10
-9.49692793e-27
1.38783215e-19
1.06685161e-09
-5.78280242e-21
8.01240771e-26
1.39287233e-09
0
4.62626794e-20
1.81196241e-09
5.78310183e-21
9.25271135e-20
2.34839417e-09
0
9.25300199e-20
3.03146961e-09
0
9.25343843e-20
3.89596922e-09
0
-9.25389162e-20
4.98229307e-09
1.15692743e-20
0
6.33606185e-09
-5.78546589e-21
-9.25540514e-20
8.00690195e-09
-5.78644408e-21
0
1.00460231e-08
5.78752762e-21
-2.77738461e-19
1.25026266e-08
0
-9.25960126e-20
1.54155639e-08
-5.79130758e-21
1.85240874e-19
1.88030195e-08
5.79340671e-21
-9.26465512e-20
2.26542484e-08
-5.79677517e-21
2.78020457e-19
2.69141999e-08
5.8003082e-21
3.7083164e-19
3.14607463e-08
-8.55778225e-21
0
3.6082404e-08
-1.43600319e-20
0
4.04638167e-08
-1.16248011e-20
4.42022571e-08
-2.32667838e-20
0
0
2.5531554e-11
5.78241818e-21
9.26281768e-28
7.77554618e-11
5.78243176e-21
1.15648679e-20
1.34340067e-10
5.78244682e-21
-2.3129773e-20
1.99915146e-10
0
-6.93894808e-20
2.79981586e-10
-5.78249048e-21
8.43780958e-27
3.80898583e-10
0
9.25199698e-20
5.10340257e-10
-5.78256356e-21
0
6.77800494e-10
0
-4.62605634e-20
8.95167805e-10
-9.38035159e-27
4.62610819e-20
1.17738683e-09
5.78278672e-21
9.25233688e-20
1.54321522e-09
-5.78293921e-21
1.08705757e-25
2.01607204e-09
5.7831043e-21
0
2.62495339e-09
1.15667323e-20
9.25302501e-20
3.40536058e-09
-5.78372369e-21
0
4.40014117e-09
-1.15683034e-20
0
5.66008107e-09
5.78471164e-21
0
7.2440017e-09
-1.05001638e-25
1.2797577e-24
9.21801983e-09
-5.78652135e-21
9.25700057e-20
1.16535095e-08
5.78786636e-21
0
1.46232291e-08
0
-1.85210897e-19
1.81933616e-08
5.79183768e-21
0
2.24145139e-08
5.79466677e-21
1.85321344e-19
2.73096581e-08
-8.56560119e-21
-9.27110487e-20
3.28497882e-08
-1.71023367e-20
1.85502651e-19
3.89247213e-08
-2.015417e-20
-1.85588301e-19
4.53031571e-08
-2.32564047e-20
-1.85714475e-19
5.15709749e-08
-1.74622346e-20
5.70915291e-08
-1.74806861e-20
0
-2.1104163e-28
2.73564121e-11
-2.1104163e-28
-8.70345204e-28
8.33432188e-11
-5.78243119e-21
0
1.44108106e-10
-1.12965638e-27
-4.07041041e-27
2.14719405e-10
-5.78246352e-21
2.31298209e-20
3.0121948e-10
5.78248364e-21
2.31298891e-20
4.10632607e-10
0
4.62599623e-20
5.51489406e-10
-5.78255597e-21
-9.25204248e-20
7.34415348e-10
5.7826037e-21
4.62605528e-20
9.72812589e-10
-8.97948196e-27
5.67970322e-26
1.28366052e-09
0
4.62617244e-20
1.68845414e-09
-5.7829213e-21
4.62625036e-20
2.21428868e-09
-2.29234035e-26
0
2.89508055e-09
5.78332833e-21
9.25300837e-20
3.77288614e-09
5.78365883e-21
9.25341861e-20
4.89923583e-09
0
-9.25404217e-20
6.33633792e-09
-1.15695693e-20
9.25470891e-20
8.1579205e-09
5.78551286e-21
-1.85113872e-19
1.04493701e-08
-1.42403479e-25
9.25717441e-20
1.33066951e-08
-5.78821262e-21
-9.25871936e-20
1.68336989e-08
0
-1.85219549e-19
2.11365455e-08
-5.7927393e-21
9.26392136e-20
2.63158009e-08
5.79565017e-21
-2.78037357e-19
3.24549229e-08
-5.80072608e-21
-9.27333511e-20
3.9598519e-08
-1.74171089e-20
0
4.77097038e-08
-1.74381916e-20
1.85725662e-19
5.66032796e-08
-1.74629257e-20
1.85924206e-19
6.58108658e-08
-1.16622899e-20
7.43422105e-08
-5.84194757e-21
-1.86052601e-19
-5.78241719e-21
2.9009846e-11
-5.78241739e-21
2.31296934e-20
8.84087978e-11
5.78242877e-21
2.31297203e-20
1.52972913e-10
5.78244268e-21
2.3129755e-20
2.2817623e-10
5.78245879e-21
0
3.20564013e-10
-2.23716104e-27
2.31298755e-20
4.3778212e-10
-1.73475174e-20
-9.25197929e-20
5.8916695e-10
0
0
7.86415858e-10
0
4.62604559e-20
1.04437521e-09
0
-4.62608373e-20
1.38198107e-09
-1.15655019e-20
4.62614837e-20
1.82338363e-09
5.78286952e-21
-1.38786787e-19
2.39927897e-09
0
9.25268071e-20
3.14845742e-09
1.1566543e-20
1.85059286e-19
4.11955474e-09
0
0
5.37295603e-09
5.78407394e-21
-1.85078357e-19
6.98275082e-09
5.78460513e-21
0
9.03857151e-09
-5.78560365e-21
-9.25573242e-20
1.1647075e-08
5.78647583e-21
-9.25694094e-20
1.49327759e-08
5.78792947e-21
-1.85174879e-19
1.9037959e-08
-5.78989147e-21
-9.26118003e-20
2.41215614e-08
-5.79288611e-21
0
3.03573004e-08
-8.54490179e-21
5.83140913e-24
3.79310548e-08
-1.43300234e-20
7.93080061e-24
4.70360569e-08
-1.16157303e-20
1.85694316e-19
5.7847996e-08
-2.32690182e-20
1.85901596e-19
7.04160477e-08
-7.98711106e-25
1.86191609e-19
8.44026818e-08
-2.33895297e-20
9.83718636e-08
-1.17265182e-20
0
0
3.04414581e-11
-5.78241661e-21
3.46945311e-20
9.27970184e-11
-1.15648534e-20
-1.15648553e-20
1.60659866e-10
0
0
2.39861323e-10
-1.35136043e-27
-2.31297803e-20
3.37391017e-10
0
-4.62596735e-20
4.61446977e-10
0
4.62598296e-20
6.2208533e-10
5.78252328e-21
0
8.3196622e-10
5.78257143e-21
-4.62602483e-20
1.10724087e-09
-1.15652644e-20
1.3878206e-19
1.46862446e-09
0
6.39418959e-26
1.94269844e-09
-5.78283032e-21
-1.85047674e-19
2.56348209e-09
1.15659567e-20
1.85051612e-19
3.37430493e-09
-5.78320416e-21
-9.25283416e-20
4.42999643e-09
5.78346509e-21
-9.25319824e-20
5.79938732e-09
-1.1567816e-20
0
7.56808889e-09
1.15688634e-20
9.25429365e-20
9.84149543e-09
-5.78522906e-21
9.25531471e-20
1.27479748e-08
1.1572422e-20
0
1.64423549e-08
-5.78770873e-21
0
2.11102375e-08
-2.39655349e-25
3.06012331e-24
2.69746167e-08
3.03187257e-21
9.26475424e-20
3.43079553e-08
-8.53513594e-21
1.19420613e-23
4.3454857e-08
-1.74044264e-20
9.27772746e-20
5.48705299e-08
-1.16193532e-20
3.71557726e-19
6.91713752e-08
-1.1643637e-20
0
8.71157645e-08
-1.75201382e-20
0
1.09076634e-07
-1.76027009e-20
1.33134081e-07
-1.77031314e-20
1.87216782e-19
-5.78241554e-21
3.16057977e-11
-1.15648312e-20
1.15648401e-20
9.63677478e-11
-4.12948526e-28
1.15648493e-20
1.66920367e-10
5.78243282e-21
0
2.49389344e-10
-5.78244501e-21
-4.62595153e-20
3.51131422e-10
0
6.93894091e-20
4.80802876e-10
-5.78247949e-21
4.62597185e-20