/*--------------------------------*- C++ -*----------------------------------*\
| =========                 |                                                 |
| \\      /  F ield         | foam-extend: Open Source CFD                    |
|  \\    /   O peration     | Version:     4.1                                |
|   \\  /    A nd           | Web:         http://www.foam-extend.org         |
|    \\/     M anipulation  |                                                 |
\*---------------------------------------------------------------------------*/
FoamFile
{
    version     2.0;
    format      ascii;
    class       volScalarField;
    location    "0.3";
    object      p;
}
// * * * * * * * * * * * * * * * * * * * * * * * * * * * * * * * * * * * * * //

dimensions      [0 2 -2 0 0 0 0];

internalField   nonuniform List<scalar> 
35840
(
79.3893938
64.7450872
55.680096
51.3597229
48.4088138
46.0694426
44.229361
42.7143573
41.3884082
40.1812366
39.0554618
37.9881631
36.9646574
35.9752584
35.0131646
34.0732872
33.151653
32.2450748
31.3509684
30.4672385
29.5921921
28.7244858
27.8630827
27.0072177
26.1563662
25.3102171
24.468646
23.6316884
72.5093952
62.1036569
54.9180688
51.1381886
48.3691978
46.0866616
44.2665651
42.7616712
41.437717
40.2275465
39.0971591
38.0250068
36.9968209
36.0031103
35.0371566
34.0938705
33.1692395
32.2600381
31.3636452
30.4779187
29.6011269
28.7318977
27.8691736
27.012173
26.1603588
25.3134105
24.4711958
23.6337435
69.3188103
60.5546728
54.2007983
50.6990527
48.114496
45.9577359
44.2098113
42.7477021
41.4492255
40.2531543
39.1299549
38.0609332
37.0334835
36.0391455
35.0718246
34.1267755
33.2001655
32.2888575
31.3902705
30.502289
29.623198
28.751635
27.8865536
27.0271885
26.1730239
25.3237647
24.4793079
23.6397138
67.701835
59.3663806
53.4680661
50.2416192
47.849026
45.8313173
44.171452
42.7616205
41.4933391
40.3134167
39.1975966
38.1307539
37.1025325
36.1058435
35.1353942
34.1868698
33.2566413
32.3416483
31.4393236
30.5475379
29.6645568
28.7890071
27.9198405
27.0563024
26.197903
25.3443871
24.4957031
23.6519719
66.6012426
58.3984868
52.7938223
49.8095085
47.5876525
45.6982637
44.129839
42.779875
41.5487826
40.390696
39.2864814
38.2246264
37.1972559
36.1989167
35.2253534
34.2728771
33.3382119
32.4184782
31.5111871
30.6142313
29.7258752
28.8447418
27.9697846
27.1002662
26.235733
25.3759859
24.5210482
23.6711307
65.803695
57.6719479
52.2380214
49.4179598
47.3264383
45.5443317
44.0607275
42.7726184
41.5843781
40.4549623
39.3690937
38.3182091
37.2966543
36.3005794
35.3268423
34.3725026
33.4347709
32.5110714
31.5990969
30.6968431
29.8026375
28.9151451
28.0333583
27.1565899
26.2844546
25.4168435
24.5538924
23.6959443
65.2046314
57.1138475
51.7787008
49.0676493
47.0744727
45.3790953
43.9684323
42.7377676
41.5928623
40.4952898
39.4322316
38.3971954
37.3862098
36.3967267
35.4265719
34.4735044
33.5352277
32.6095046
31.6942548
30.7876266
29.888055
28.9942845
28.1053844
27.2207543
26.340115
25.4634895
24.5911727
23.7236917
64.7383201
56.6718618
51.397837
48.7610467
46.8413679
45.2143644
43.8639045
42.6834486
41.5789124
40.5130509
39.4744384
38.4579044
37.4606259
36.4809916
35.5175602
34.5686465
33.6323645
32.7067733
31.79
30.8803437
29.9763487
29.0768489
28.1810058
27.2883265
26.398666
25.5122156
24.6294759
23.7512138
64.3665965
56.3159481
51.0820831
48.4967368
46.6315518
45.0578771
43.7564002
42.6187409
41.550372
40.514393
39.500055
38.5029592
37.5210108
36.5532227
35.5986612
34.6560384
33.7237682
32.8001263
31.8833947
30.9719818
30.0645101
29.1598862
28.2573542
27.3565293
26.4574143
25.5603964
24.6662248
23.7759641
64.0656982
56.0259432
50.8196115
48.2707215
46.4462663
44.9142942
43.6526038
42.5510944
41.5145567
40.5059816
39.5148391
38.5371136
37.5711257
36.6162662
35.6719194
34.73705
33.8102595
32.8899523
31.9744946
31.0623422
30.1521475
29.2428498
28.3337463
27.4245442
26.5153943
25.6069015
24.7001054
23.7964307
63.8197556
55.7878101
50.6010946
48.0787748
46.2852379
44.7861346
43.556871
42.4858535
41.4771371
40.4933788
39.5239885
38.5650691
37.6151269
36.6737401
35.7404555
34.8143628
33.8941444
32.9782449
32.0650332
31.1529392
30.2405808
29.326872
28.4111159
27.4930804
26.5730534
25.6518709
24.7309071
23.8120229
63.6176991
55.5915583
50.4193188
47.916914
46.1472829
44.6743927
43.471767
42.4265779
41.4421839
40.4808161
39.5316707
38.5907977
37.6567278
36.7290826
35.8074455
34.8909201
33.9781723
33.0675958
32.1574722
31.2461223
30.3320477
29.4140596
28.4913987
27.5638416
26.631787
25.6963103
24.7591702
23.8227562
63.4514968
55.4298125
50.2685991
47.7815329
46.0307703
44.5791083
43.3986235
42.3755013
41.4124858
40.4713684
39.5410597
38.6174564
37.6990053
36.7852675
35.8757634
34.9695179
34.0650902
33.1607284
32.2545334
31.3446188
30.4292672
29.5070844
28.5771534
27.6391809
26.6936284
25.7418069
24.785913
23.8289817
63.3151027
55.2969404
50.1443761
47.6694451
45.9339074
44.4997464
43.3379378
42.3338959
41.3898492
40.4671776
39.5544866
38.6474683
37.7444204
36.8447711
35.9479051
35.0526929
34.1575012
33.2603417
32.3590334
31.4513683
30.5352834
29.6090453
28.6714457
27.7220035
26.7611595
25.7904349
24.8125181
23.831237
63.2038103
55.1885063
50.0429184
47.5778448
45.8548752
44.4354276
43.2896422
42.3023418
41.3753383
40.4696504
39.5735905
38.6826303
37.7948844
36.9096062
36.0259958
35.1427054
34.2578356
33.369074
32.4738494
31.5695002
30.6534631
29.7234897
28.7778951
27.8158342
26.8375881
25.8448228
24.8407634
23.8302157
63.1138394
55.1009118
49.9611022
47.5042444
45.7918899
44.3850674
43.2532838
42.2809156
41.369451
40.4796076
39.599437
38.7241984
37.8518171
36.9813568
36.1117998
35.2415357
34.3683402
33.4894932
32.6019201
31.7023567
30.78755
29.8545088
28.9008149
27.9249978
26.9269516
25.9083492
24.8729689
23.8268197
63.0420642
55.0311561
49.8962528
47.4464124
45.7432249
44.347458
43.22814
42.2693183
41.3722417
40.497391
39.6326013
38.7729474
37.9161848
37.0611877
36.2067116
35.3508632
34.4910497
33.6240706
32.7462349
31.8535111
30.9417299
30.0068639
29.0454099
28.0548855
27.0344312
25.9854623
24.9122546
23.8222817
62.9858306
54.9766716
49.846029
47.4023187
45.7072118
44.3213121
43.2132903
42.2669589
41.3834037
40.5229337
39.6732223
38.8292087
37.9885081
37.1498301
36.3117235
35.4720149
34.6277249
33.7751193
32.909787
32.026756
31.1206776
30.1861197
29.2180156
28.2123076
27.1667971
26.0821557
24.9629453
23.8183738
62.9428303
54.9352105
49.8083401
47.3700901
45.6822336
44.3052874
43.2076607
42.2730087
41.4023221
40.5558062
39.7210405
38.8928794
38.0688481
37.247546
36.4273619
35.605879
34.7797471
33.9446792
33.0954669
32.2260325
31.3295588
30.3987595
29.4263703
28.4059454
27.333024
26.2066658
25.0311865
23.8177318
62.9110151
54.9047661
49.7812866
47.3479755
45.6667159
44.2979995
43.2100523
42.2864356
41.4281111
40.5952534
39.7754098
38.9634143
38.1567789
37.3540701
36.5535968
35.7527775
34.9479573
34.1343318
33.3058715
32.455266
31.5739419
30.6522423
29.6798929
28.646916
27.5451563
26.3705369
25.1259486
23.8243897
62.8885392
54.8835201
49.7631201
47.3343228
45.6591209
44.2980314
43.2191591
42.3060325
41.4596489
40.6402102
39.8352999
39.0398157
38.2513478
37.4685342
36.6897228
35.9122976
35.1324327
34.3449252
33.5429928
32.7180545
31.8595516
30.9549204
29.9898952
28.9494156
27.8194712
26.5902682
25.2608373
23.8450625
62.873721
54.8698081
49.7522174
47.3275652
45.6579463
44.303939
43.2335897
42.3304524
41.495597
40.6893148
39.8993062
39.120621
38.3510336
37.5893848
36.8342212
36.0830838
35.3321958
34.5761895
33.8077451
33.0171408
32.1917631
31.3156916
30.3695908
29.3313119
28.1778173
26.8893261
25.4563448
23.8907924
62.8650229
54.8620999
49.7470676
47.3262169
45.6617255
44.3142704
43.2519037
42.3582267
41.5344211
40.7409374
39.9656661
39.2038995
38.4537138
37.7143052
36.9846184
36.2626062
35.5448607
34.826233
34.0992913
33.35358
32.5746867
31.7431955
30.8337581
29.8147812
28.64968
27.301458
25.7426535
23.9761734
62.8610463
54.8589921
49.7462656
47.3288715
45.6690474
44.3276
43.2726274
42.3877914
41.5744351
40.7932201
40.0322919
39.2872726
38.5566594
37.8401679
37.1373667
36.4469318
35.7662448
35.0909297
34.4141396
33.7254959
33.0096007
32.2440918
31.3973628
30.4264266
29.2759906
27.8810719
26.1772223
24.1364404
62.8605354
54.8592037
49.7485213
47.3342301
45.6785809
44.3425433
43.2942803
42.4175396
41.6138548
40.8441346
40.0968314
39.3679709
38.6565775
37.9630422
37.2877878
36.6305538
35.9900085
35.3632628
34.7450505
34.1263917
33.4925145
32.819774
32.0714392
31.1924626
30.1047071
28.7040091
26.8669354
24.4853711
62.8623392
54.8615977
49.7526864
47.3411054
45.6890856
44.3577815
43.3154302
42.4458797
41.6508665
40.8915648
40.156764
39.4429409
38.7497219
38.0782948
37.4301336
36.8063587
36.207434
35.6327624
35.0799082
34.5431702
34.0110758
33.4621308
32.857911
32.1321915
31.176671
29.8235262
27.8619686
25.0259188
62.8654439
54.865195
49.7577583
47.3484325
45.6994438
44.3721113
43.3347461
42.4713015
41.6837128
40.9334148
40.2095349
39.5090091
38.8320901
38.1808168
37.5578267
36.9658369
36.4075079
35.8852637
35.4007975
34.9539606
34.5404775
34.1474611
33.744482
33.2657631
32.575027
31.3978803
29.2750452
25.2835003
62.8690303
54.8691737
49.7628866
47.3553159
45.7087002
44.3844875
43.351054
42.4924515
41.7107907
40.9677374
40.2527234
39.5631043
38.8997142
38.2654007
37.6639377
37.0996576
36.5775431
36.103396
35.6838825
35.3262567
35.0374014
34.8213642
34.6731881
34.5640705
34.4047105
33.953471
32.5022611
27.2054089
72.6686287
62.226532
54.9908413
51.1623632
48.3576833
46.0503078
44.2135445
42.6992653
41.3719285
40.1626989
39.0360433
37.9692009
36.947014
35.9593951
34.9992684
34.0613592
33.1415824
32.2367002
31.344112
30.46172
29.5878391
28.7211361
27.8605846
27.0054283
26.1551506
25.3094471
24.4681991
23.631448
64.9488993
59.5546513
54.6337711
51.35992
48.6891846
46.3765178
44.482004
42.9109
41.5382341
40.2938515
39.1410305
38.0550001
37.0183487
36.0194208
35.050204
34.1048302
33.1788175
32.2686634
31.3715842
30.4853467
29.6081641
28.7386267
27.8756494
27.0184302
26.1664162
25.3192738
24.4768599
23.6391942
61.7085253
58.2053686
54.212498
51.1423572
48.6081646
46.4004075
44.5469572
42.9854723
41.6130649
40.3649724
39.2068144
38.1153943
37.0737913
36.0703687
35.0970634
34.1479404
33.2184428
32.3050019
31.4047837
30.5155198
29.6353996
28.762997
27.8972196
27.0372665
26.182593
25.3328804
24.4880058
23.6480128
60.1320633
57.0494483
53.5359659
50.7461105
48.4012279
46.333948
44.5644771
43.0461883
41.6949529
40.4553159
39.2979996
38.2034982
37.1571378
36.1484006
35.1697466
34.2154619
33.2810432
32.3628927
31.4581174
30.5643877
29.6798405
28.803013
27.9327929
27.0683768
26.209235
25.3550791
24.5058294
23.661583
59.0261516
56.0503199
52.8514034
50.3319878
48.1610264
46.2175282
44.5366006
43.0761412
41.7606419
40.5418965
39.3953011
38.3048051
37.2583057
36.2469946
35.2643905
34.3054109
33.3659039
32.4424446
31.5322091
30.6328823
29.7425935
28.8598691
27.983594
27.1129779
26.2475237
25.3869952
24.5313838
23.6808729
58.2187832
55.3052802
52.2853297
49.9442909
47.9038358
46.0624918
44.4636379
43.06416
41.7915595
40.6022905
39.4751718
38.3966624
37.3567314
36.3481897
35.3657182
34.4050321
33.4625106
32.5350673
31.6200846
30.7153698
29.8191259
28.9299312
28.0467176
27.1687506
26.2956056
25.4271397
24.5634589
23.7048799
57.6116294
54.7337152
51.8135383
49.5893356
47.6496781
45.8932419
44.3656637
43.0227969
41.7932604
40.6361849
39.5326831
38.4709545
37.4424474
36.4412119
35.4628892
34.5039056
33.5611539
32.6319097
31.7138033
30.8048107
29.9032536
29.0078029
28.1174769
27.2316355
26.3499671
25.4724662
24.599403
23.7312823
57.1383345
54.2808595
51.4215285
49.2770007
47.4138978
45.7255488
44.2572075
42.9638868
41.7743453
40.6489539
39.5702001
38.5274465
37.5131507
36.5222346
35.5510475
34.596563
33.6560862
32.7271954
31.8077384
30.8958461
29.9899568
29.088839
28.1916089
27.297739
26.4070569
25.5197309
24.6362414
23.757338
56.7609277
53.9167852
51.0973041
49.0078357
47.2017014
45.5669943
44.147292
42.8964739
41.7428903
40.6473023
39.5929074
38.5697844
37.5710483
36.5922061
35.6300993
34.6820919
33.745786
32.8189785
31.8996722
30.9861074
30.0768053
29.1706088
28.2667182
27.3647168
26.4645827
25.5666825
24.6717486
23.780833
56.4555722
53.6206622
50.8284079
48.7778357
47.0143507
45.4219393
44.0420929
42.8274017
41.7055952
40.6373788
39.6062096
38.6025355
37.6198552
36.6540357
35.7022305
34.7620543
33.8312963
32.9078828
31.9898979
31.0756307
30.1636331
29.2527807
28.3423259
27.4319432
26.5217601
25.6123639
24.7047805
23.8004226
56.2061679
53.3778771
50.6049775
48.5827096
46.8516237
45.2927179
43.9455451
42.7614576
41.6675101
40.6241264
39.6147394
38.6299152
37.663326
36.7110195
35.7703107
34.8389404
33.9147809
32.9957967
32.0800741
31.1658779
30.2517245
29.3364614
28.4193465
27.5001163
26.5790348
25.6569197
24.7351322
23.8155237
56.0014256
53.1780457
50.4194074
48.4183285
46.7122805
45.1801636
43.8599305
42.7018435
41.6323038
40.6113568
39.6222522
38.6555088
37.7048202
36.7662767
35.837232
34.9154437
33.9987678
33.0851162
32.1724904
31.2590456
30.34318
29.4236374
28.4996122
27.5708468
26.6377147
25.7012724
24.7632662
23.8260781
55.8331288
53.0135042
50.2657085
48.2809274
46.5946188
45.0842213
43.7864316
42.6506018
41.6025452
40.601908
39.6316815
38.6822383
37.7471902
36.8225694
35.9056708
34.9941748
34.0858295
33.1784036
32.2697192
31.3577226
30.4405919
29.5168633
28.5855706
27.6463835
26.6997357
25.746918
24.7901138
23.8323519
55.6950826
52.8784102
50.1391011
48.1671944
46.4967906
45.0043047
43.7254703
42.6089076
41.5799281
40.5977999
39.6452328
38.7124029
37.7927766
36.8822591
35.9780123
35.0775613
34.1784652
33.2782594
32.3744835
31.4647607
30.5469217
29.6191602
28.6802153
27.7295649
26.7676179
25.7958714
24.8169987
23.8348227
55.5824651
52.7681756
50.0356957
48.0742293
46.4169341
44.9395033
43.676941
42.5772943
41.565463
40.6003812
39.6644859
38.7477407
37.8434355
36.9473049
36.0563257
35.1678096
34.279055
33.387274
32.489615
31.5832466
30.6654968
29.7340414
28.7871376
27.8238935
26.844551
25.8507456
24.8456829
23.8341628
55.4914085
52.6790917
49.9522552
47.9994739
46.3532325
44.8887133
43.6403726
42.5558181
41.559625
40.6104483
39.6904818
38.7894858
37.9005655
37.0192654
36.1423513
35.2668799
34.3898271
33.5079972
32.6180362
31.7165098
30.8000542
29.8655982
28.9106594
27.933711
26.9345972
25.9149486
24.8785146
23.8312951
55.4187215
52.6080776
49.8860231
47.9406451
46.3039345
44.8507143
43.6150338
42.5441721
41.5624604
40.6283351
39.7237902
38.8384082
37.9651224
37.0992962
36.2374789
35.3764479
34.5128119
33.6428979
32.7627377
31.8681302
30.9547938
30.0186168
29.0560229
28.0644607
27.0430032
25.993003
24.9186881
23.8275158
55.3617017
52.5525077
49.8345995
47.8956753
46.2673537
44.824211
43.6000002
42.5417631
41.5736615
40.6539764
39.7645528
38.894834
38.0376229
37.1881305
36.3427034
35.4978418
34.6497727
33.7942945
32.9267227
32.041918
31.1344193
30.1987058
29.2296277
28.2230399
27.176649
26.0910296
24.9706611
23.8247174
55.3180062
52.5100928
49.7958521
47.8626641
46.2418603
44.8078555
43.5941962
42.5477637
41.5926188
40.6869491
39.8125054
38.958658
38.1181331
37.2860346
36.4585532
35.6319526
34.802096
33.9642357
33.1128961
32.2418383
31.3441353
30.4124098
29.4393028
28.418256
27.3446715
26.2174544
25.040778
23.8257124
55.2855624
52.4787974
49.7678523
47.839842
46.2258708
44.8002602
43.5964235
42.561148
41.6184535
40.726492
39.8669991
39.0293406
38.2062304
37.3927443
36.5850006
35.7791062
34.9706284
34.1543118
33.3238707
32.4718439
31.5895573
30.6672652
29.6945883
28.6614032
27.5593507
26.3841044
25.1382781
23.8346948
55.2625084
52.4567834
49.7488322
47.8255448
46.2178421
44.8000072
43.6053831
42.580716
41.6500355
40.7715355
39.9270088
39.1058861
38.3009626
37.5073927
36.7213419
35.938892
35.1554507
34.3653778
33.5616518
32.7355597
31.8764605
30.9717136
30.0069432
28.9669063
27.8373032
26.6079406
25.2772811
23.8587716
55.247153
52.4423745
49.737157
47.8181986
46.2162696
44.8056601
43.6196899
42.6051096
41.6860199
40.8207223
39.9911303
39.1868306
38.4008078
37.6284257
36.8660579
36.1099541
35.3555853
34.597166
33.8271617
33.0357496
32.210267
31.3347432
30.3897345
29.352861
28.2006579
26.9127499
25.478649
23.9096456
55.2379527
52.4340341
49.7313104
47.8163152
46.2196941
44.8157716
43.6378898
42.6328519
41.7248766
40.8724217
40.0575989
39.2702421
38.5036418
37.7535249
37.0166721
36.2897581
35.5686405
34.8477784
34.1195605
33.3734769
32.595122
31.7650826
30.8579228
29.8417259
28.6791151
27.331876
25.7703027
23.9971109
55.2334981
52.4303555
49.7298908
47.8184971
46.2267064
44.8289027
43.6584994
42.6623835
41.7649182
40.9247738
40.1243252
39.3537398
38.6067329
37.879558
37.16963
36.4743613
35.7904204
35.1130714
34.4353351
33.7468449
33.032296
32.2694285
31.4266404
30.4605527
29.3147062
27.9217333
26.210047
24.1491479
55.2325126
52.4300556
49.7316103
47.8234417
46.2359638
44.8436598
43.6800438
42.6920976
41.8043594
40.9757489
40.1889547
39.4345506
38.7067827
38.0025869
37.3202429
36.6582417
36.0145631
35.3859964
34.7672023
34.1492985
33.517719
32.8490416
32.1065458
31.2346803
30.154117
28.7581003
26.9109661
24.5032228
55.2338743
52.4320064
49.7353165
47.8299536
46.246223
44.858729
43.7010932
42.7204032
41.8413862
41.0232292
40.2489635
39.5096161
38.8000384
38.1179689
37.4627485
36.8342645
36.2323181
35.6560354
35.1029813
34.5676673
34.0389846
33.4957577
32.8992927
32.181533
31.229785
29.8633638
27.8539683
24.9517115
55.2366178
52.435239
49.7400063
47.8369753
46.2563714
44.8729117
43.7203197
42.7457912
41.8742407
41.0651168
40.3017932
39.5757577
38.8824896
38.2205838
37.590552
36.9938917
36.4326259
35.9089489
35.4246449
34.9799503
34.5712518
34.1863228
33.7948608
33.3284824
32.6404422
31.4085825
29.0982622
24.5580608
55.2399335
52.4389354
49.7448343
47.8436178
46.2654592
44.8851673
43.736552
42.7669093
41.9013194
41.0994627
40.3450199
39.6298988
38.9501611
38.3052127
37.6967057
37.1277608
36.6027405
36.1272551
35.7081476
35.3532585
35.0705218
34.8655124
34.7356629
34.6551829
34.5360787
34.1095234
32.5989761
26.2121239
69.7514595
60.9430263
54.505261
50.9008757
48.2243534
45.9915804
44.1832271
42.6770008
41.3495371
40.1368001
39.0062115
37.9363633
36.9124235
35.9242419
34.964533
34.0277642
33.1096102
32.2066427
31.3161219
30.4358529
29.5640867
28.6994488
27.840886
26.9876243
26.1391345
25.2951028
24.4554024
23.6200678
61.9952215
58.490592
54.4697043
51.3455766
48.7508711
46.4877772
44.5880729
42.9909446
41.5930267
40.3276873
39.1585381
38.0607369
37.016072
36.011915
35.0394721
34.0922869
33.1654374
32.2551039
31.3582837
30.4725961
29.5961549
28.7274818
27.8654437
27.0092041
26.1581841
25.312029
24.4705777
23.633834
58.7526543
57.2575071
54.2603132
51.3227239
48.8344997
46.6574178
44.7674006
43.1448324
41.7216362
40.4364857
39.2514777
38.1412104
37.0868333
36.0748956
35.0959985
34.1433044
33.2116264
32.2969549
31.3961561
30.5067614
29.6268252
28.7548298
27.8896182
27.0303424
26.176422
25.3275088
24.4834549
23.6442813
57.1966421
56.1348763
53.6527101
51.0153285
48.720204
46.6829398
44.86668
43.2702936
41.8526417
40.5643297
39.3715772
38.2518204
37.1879905
36.167279
35.1804022
34.2204863
33.2822441
32.3615321
31.4550837
30.560317
29.6751972
28.7981426
27.9279562
27.0637727
26.2050148
25.3513552
24.5026813
23.6590607
56.0938727
55.1336427
52.984924
50.6427482
48.5288583
46.6134017
44.8810356
43.3355999
41.9466218
40.6737133
39.4877494
38.3691138
37.3029788
36.2780009
35.2857612
34.3199083
33.3754613
32.4484308
31.5356076
30.6344165
29.7428085
28.8591848
27.9823403
27.1114179
26.2458683
25.3854131
24.5300076
23.6798028
55.2817621
54.3812446
52.4201811
50.2704389
48.2912508
46.4762441
44.8242878
43.3378747
41.9892655
40.7437083
39.5758888
38.4684785
37.4084777
36.386005
35.3936835
34.4258835
33.4781263
32.546761
31.6287957
30.7217907
29.8237841
28.9332399
28.0490093
27.170298
26.2966351
25.4278403
24.5639879
23.705366
54.6678527
53.8005617
51.9414252
49.9157413
48.0411646
46.3113475
44.7307035
43.3008898
41.9947997
40.7807676
39.6361625
38.5454034
37.4968761
36.4818713
35.4939068
34.5280015
33.5801514
32.6470512
31.7259546
30.8145959
29.9111405
29.0141555
28.1225881
27.2357479
26.3532856
25.475167
24.601638
23.7331824
54.1875285
53.3384559
51.5402532
49.5984185
47.8035167
46.1426012
44.6215944
43.2418404
41.9759967
40.7936718
39.6738356
38.6021459
37.5679884
36.5635162
35.5829383
34.6217919
33.6764572
32.743913
31.8216201
30.9074633
29.999724
29.0970694
28.1985482
27.3035875
26.4119833
25.523881
24.6397441
23.7603079
53.8037348
52.9662424
51.2074482
49.3230492
47.5872201
45.9807547
44.5089627
43.1724391
41.9431382
40.7909654
39.6957175
38.6438481
37.6254245
36.6332018
35.6618924
34.7074215
33.766456
32.8361818
31.9142061
30.9985168
30.0874731
29.1798135
28.2746699
27.3715799
26.4704912
25.5717513
24.6760792
23.7845167
53.4929495
52.6633205
50.9311607
49.0870008
47.3952125
45.8317884
44.400513
43.1008841
41.9040212
40.7796766
39.7079642
38.6757676
37.6735687
36.6945077
35.7336303
34.7871224
33.8518389
32.925092
32.0045665
31.0882938
30.1746595
29.2624301
28.3507864
27.4393559
26.5282338
25.617986
24.7096252
23.8045585
53.2390665
52.4149763
50.7016026
48.8865525
47.2280993
45.6988
44.3008226
43.0325018
41.8641221
40.7650737
39.71547
38.7023528
37.7164066
36.7509773
35.8012941
34.8636833
33.9350884
33.0128626
32.0946918
31.1785808
30.2628765
29.3463146
28.4280774
27.5078484
26.585857
25.6628981
24.7403197
23.8199678
53.0306789
52.2106424
50.5110421
48.7176914
47.0849067
45.5828744
44.2123784
42.9706738
41.8272573
40.7510748
39.7220652
38.7272482
37.7573537
36.8057937
35.8678555
34.9398962
34.0188516
33.1020266
32.1870233
31.2717358
30.3543912
29.4336169
28.5085279
27.5788111
26.6448013
25.7075296
24.7687278
23.830773
52.8594235
52.0424543
50.3532906
48.5765762
46.9639591
45.4840055
44.136406
42.9174833
41.796029
40.7405361
39.7306869
38.7533713
37.7992561
36.8617149
35.9359938
35.0183857
34.1057278
33.1951863
32.2841852
31.370409
30.4518628
29.5269644
28.5946645
27.6545724
26.7070791
25.7534462
24.79584
23.8372846
52.7189654
51.9043875
50.2233733
48.459767
46.8633497
45.401574
44.0733006
42.8740856
41.7721155
40.7354607
39.7435209
38.7829992
37.8444317
36.921081
36.0080761
35.1015676
34.1982115
33.2949438
32.3889078
31.4774669
30.5582768
29.6294094
28.6895163
27.7380092
26.7752475
25.802694
24.8230018
23.8399896
52.6043625
51.7917028
50.1172344
48.3642339
46.7811306
45.3346057
44.022905
42.840974
41.7564972
40.7371725
39.7621238
38.8178479
37.8947143
36.9858299
36.0861538
35.1916334
34.2986692
33.403879
32.504019
31.5959982
30.6769681
29.7444776
28.7966899
27.8326389
26.8525086
25.8578918
24.8519694
23.8395391
52.5116499
51.7005716
50.0315028
48.2873056
46.7154001
45.2819301
43.9846943
42.8181635
41.7496185
40.7464439
39.7875164
38.8591321
37.951485
37.0575059
36.1719542
35.2905285
34.4093162
33.524534
32.6324383
31.7293342
30.8116782
29.8762674
28.9205163
27.9428127
26.9429286
25.9224393
24.885062
23.8367978
52.4375607
51.6278206
49.9633179
48.2266069
46.6643337
45.2422673
43.9578893
42.8053108
41.7514989
40.7635882
39.8202506
38.907607
38.0156888
37.1372545
36.2668538
35.3999185
34.5321782
33.6593765
32.7771567
31.8810574
30.9666144
30.029577
29.0662529
28.0739865
27.0517563
26.0008373
24.9254119
23.8329438
52.3793349
51.5707546
49.9102013
48.1799991
46.6261862
45.2142734
43.9415261
42.801793
41.7618084
40.7885228
39.8604546
38.9635912
38.0878347
37.2257979
36.3718411
35.521131
34.6690194
33.8107261
32.9411818
32.0549883
31.1464978
30.2100395
29.2403273
28.2330814
27.1858753
26.0991663
24.9773609
23.8296453
52.3345867
51.5270326
49.8699625
48.1455287
46.5992827
45.1965628
43.9344991
42.806759
41.7799188
40.8208103
39.9078588
39.0269721
38.1679801
37.3234
36.4874478
35.6550582
34.8212273
33.9806364
33.127431
32.2551141
31.3565669
30.4242457
29.4506229
28.4289536
27.3544363
26.2257821
25.0470331
23.8292843
52.3012129
51.494582
49.8406316
48.1213881
46.5820076
45.1877206
43.9355875
42.8191644
41.8049372
40.8596856
39.9618066
39.0972044
38.255704
37.4298015
36.6136464
35.802027
34.9896539
34.1707106
33.3385401
32.4854269
31.6024982
30.6798182
29.7067871
28.6730054
27.5697763
26.392416
25.1432605
23.8351664
52.2773301
51.4715394
49.8204125
48.1058875
46.5727958
45.1863101
43.9434752
42.8377963
41.8357309
40.9040735
40.0212708
39.1732974
38.3500589
37.5441355
36.7497347
35.961632
35.1743914
34.3818251
33.5765536
32.7496175
31.8901723
30.9853539
30.020484
28.9798903
27.8486874
26.6159998
25.2796495
23.8530036
52.2612333
51.4562115
49.8076529
48.0974374
46.570129
45.1908816
43.9567688
42.8612952
41.8709539
40.9526185
40.0848565
39.2537922
38.4495242
37.6648506
36.8941988
36.1325266
35.374479
34.6137443
33.8424535
33.0505568
32.2251907
31.3501202
30.4054707
29.3681605
28.2136677
26.9202987
25.4762017
23.8924591
52.2513713
51.4470527
49.8008272
48.0945413
46.5725394
45.1999844
43.9740162
42.8881903
41.9090825
41.0037021
40.1508037
39.3367599
38.5519802
37.7896339
37.0445693
36.3121879
35.5875472
34.8646139
34.135485
33.3894692
32.6119905
31.7833448
30.8774941
29.8613631
28.6955452
27.3389005
25.7582089
23.9558467
52.2463352
51.4426548
49.798531
48.0957969
46.5786172
45.2121881
43.9937453
42.9169333
41.9484429
41.0554708
40.2170294
39.419827
38.6547021
37.91536
37.1973
36.4966862
35.8094244
35.1303414
34.452243
33.7646781
33.0522714
32.2925218
31.4531051
30.4889753
29.3400716
27.9329721
26.1858876
24.0630792
52.2448531
51.4417502
49.7994831
48.0999044
46.5870333
45.2261131
44.014495
42.9459307
41.9872593
41.1059047
40.2811895
39.5002301
38.7544002
38.0380988
37.34771
36.6805098
36.0337691
35.4039268
34.7855623
34.1699011
33.5425479
32.8800634
32.1450873
31.2798204
30.1996806
28.7888451
26.8926061
24.3891404
52.2457978
51.4432035
49.8025333
48.1056851
46.596562
45.2404584
44.0348485
42.9736042
42.0237303
41.152899
40.3407724
39.5749217
38.8473309
38.1532143
37.4900407
36.8565244
36.251832
35.6748695
35.1233445
34.5922431
34.0711817
33.5396971
32.9590357
32.2580208
31.3152365
29.9305289
27.8456057
24.8014534
52.2481972
51.4460245
49.806679
48.1121006
46.6061039
45.2540369
44.0534913
42.9984592
42.0561125
41.1943696
40.3932323
39.6407346
38.9294932
38.2555914
37.6176943
37.016175
36.4525139
35.9288616
35.4474804
35.0097083
34.6138147
34.2503409
33.8918959
33.4700631
32.8285202
31.5945504
29.1330864
24.0273466
52.2512442
51.4493977
49.8110838
48.1182744
46.6147205
45.2658204
44.0692661
43.0191575
42.0828164
41.2283811
40.4361586
39.694604
38.9969206
38.3400137
37.7237126
37.1500612
36.6229761
36.148221
35.7335228
35.3886591
35.1252454
34.9553228
34.8868996
34.9102173
34.9569122
34.737468
33.32819
25.8602494
68.5253946
60.1314672
54.1010214
50.7054984
48.1527058
45.9938545
44.2157554
42.7144831
41.3807445
40.1573471
39.0153851
37.9353778
36.9032233
35.9088638
34.9448183
34.0052445
33.0854914
32.181839
31.2913076
30.4115156
29.5405722
28.6769976
27.81966
26.9677269
26.1206242
25.2780027
24.4397072
23.6057481
60.8192312
57.7218163
54.1373372
51.22937
48.7545366
46.5644921
44.6881094
43.0845805
41.6705004
40.3870556
39.2007297
38.0883077
37.0320792
36.019156
35.0402624
34.0884669
33.1584283
32.2459794
31.3478459
30.4614423
29.5847294
28.7161148
27.8543799
26.9986236
26.1482168
25.302765
24.4620749
23.6261228
57.5995377
56.5256151
54.0050056
51.3051437
48.9395111
46.8337957
44.955693
43.3081114
41.8516081
40.5355631
39.323975
38.192199
37.1213616
36.0971732
35.1092524
34.1499705
33.2135357
32.295473
31.3923013
30.5012984
29.6203336
28.747753
27.882297
27.0230397
26.1693401
25.3208009
24.4772339
23.6386261
56.070732
55.4401243
53.4463208
51.0560683
48.8888833
46.9259984
45.118727
43.4884667
42.0273833
40.6994735
39.4729796
38.3259344
37.2412263
36.2049945
35.2066414
34.2382351
33.2937092
32.3683408
31.4584413
30.5611298
29.6741599
28.7957967
27.9247295
27.0600065
26.2009828
25.3472763
24.4987286
23.6553676
54.9842878
54.458116
52.8023279
50.7142961
48.7327123
46.8926506
45.1676206
43.5841165
42.146552
40.8295197
39.6062739
38.4576342
37.3686054
36.3266494
35.3218471
34.3466354
33.3951599
32.4627971
31.5458849
30.6415346
29.7474816
28.8619755
27.9837008
27.1117181
26.2454144
25.3844594
24.5287646
23.678443
54.1787082
53.7139549
52.2488711
50.3577483
48.5130614
46.7731599
45.1273622
43.6008649
42.2010252
40.9089261
39.702072
38.5635017
37.4798965
36.4400635
35.4350065
34.457775
33.5029421
32.5661787
31.6440163
30.7336922
29.8330294
28.9403458
28.0543912
27.1742986
26.2995432
25.4299021
24.5654142
23.7063371
53.5663326
53.1361042
51.7741833
50.0091047
48.2703188
46.6156905
45.0408467
43.5702019
42.2116779
40.9498649
39.765311
38.6428331
37.5704166
36.5379782
35.5373563
34.5621832
33.6074509
32.6691375
31.743995
30.8294194
29.9233535
29.0242171
28.1308588
27.2425209
26.3588071
25.4796484
24.6052643
23.7361164
53.0850988
52.673818
51.3731307
49.6928145
48.034642
46.4492091
44.9339683
43.5131853
42.1944734
40.9638424
39.8036534
38.7000183
37.6418867
36.6200054
35.6268809
34.6566351
33.7046161
32.7670637
31.8409196
30.9237171
30.013505
29.1087969
28.2085397
27.3120928
26.4192063
25.5299944
24.6448984
23.7646376
52.6993957
52.3001082
51.0387917
49.4162685
47.8177115
46.2869894
44.8210849
43.4436329
42.1614572
40.9608764
39.8251872
38.7413483
37.6989795
36.6894154
35.7056601
34.7422172
33.7947119
32.8595826
31.9339097
31.0153219
30.1019387
29.192339
28.2855479
27.3810315
26.4786896
25.5788379
24.6821745
23.7897274
52.386468
51.9952861
50.7604208
49.1781729
47.6239123
46.1364443
44.7112675
43.3709515
42.1214024
40.9487607
39.8366895
38.7726116
37.7465603
36.7502498
35.7770196
34.8216368
33.8799148
32.9484177
32.0243017
31.1052365
30.1893644
29.2752882
28.3620779
27.4492856
26.5369553
25.6256182
24.7162651
23.8102907
52.1305556
51.7450549
50.5287444
48.9754959
47.4546606
46.0014711
44.6098122
43.3010769
42.0802635
40.9331179
39.8433198
38.7984662
37.7887934
36.8062209
35.8442764
34.897873
33.9629176
33.0360177
32.1143324
31.1955049
30.2776376
29.3593005
28.4395615
27.5180253
26.5948664
25.6708431
24.7472798
23.8260097
51.9203807
51.5390204
50.3362536
48.8045377
47.3093625
45.8835306
44.5195444
43.2376832
42.0420913
40.918037
39.8490263
38.8226386
37.8291553
36.8605633
35.9104538