/*--------------------------------*- C++ -*----------------------------------*\
| =========                 |                                                 |
| \\      /  F ield         | foam-extend: Open Source CFD                    |
|  \\    /   O peration     | Version:     4.1                                |
|   \\  /    A nd           | Web:         http://www.foam-extend.org         |
|    \\/     M anipulation  |                                                 |
\*---------------------------------------------------------------------------*/
FoamFile
{
    version     2.0;
    format      ascii;
    class       surfaceScalarField;
    location    "0.3";
    object      phi;
}
// * * * * * * * * * * * * * * * * * * * * * * * * * * * * * * * * * * * * * //

dimensions      [0 3 -1 0 0 0 0];

internalField   nonuniform List<scalar> 
102656
(
0.000395260992
5.30266987e-05
5.17123094e-05
0.000281609543
5.82612912e-05
5.53901565e-05
0.000200388158
4.23599615e-05
3.88614226e-05
0.000148889967
2.74478461e-05
2.40503441e-05
0.000117042895
1.73738653e-05
1.44732058e-05
9.68259446e-05
1.1225648e-05
8.9913018e-06
8.35614053e-05
7.39736328e-06
5.86717532e-06
7.4650797e-05
4.89428144e-06
4.01632636e-06
6.84826439e-05
3.2481875e-06
2.91996541e-06
6.40414129e-05
2.16891443e-06
2.2723165e-06
6.07167502e-05
1.45091708e-06
1.87374582e-06
5.81441764e-05
9.63243831e-07
1.60933049e-06
5.60996852e-05
6.26078434e-07
1.41841357e-06
5.44413904e-05
3.89219795e-07
1.2690759e-06
5.30764301e-05
2.20436792e-07
1.14452472e-06
5.19412723e-05
9.90425698e-08
1.03611658e-06
5.09901647e-05
1.17019618e-08
9.3940705e-07
5.01887089e-05
-5.04626023e-08
8.51919981e-07
4.95099993e-05
-9.34416508e-08
7.72152837e-07
4.89320689e-05
-1.21190256e-07
6.99122208e-07
4.84364516e-05
-1.36465878e-07
6.32084674e-07
4.80073145e-05
-1.41319023e-07
5.70457576e-07
4.76308784e-05
-1.37352602e-07
5.13790111e-07
4.72950282e-05
-1.25884926e-07
4.61736389e-07
4.69890703e-05
-1.08080336e-07
4.14039369e-07
4.67035899e-05
-8.50359424e-08
3.70517444e-07
4.6430372e-05
-5.78312838e-08
3.31050142e-07
-2.75484863e-08
2.95563545e-07
4.61623579e-05
0.000461998914
2.77116245e-05
6.33161588e-05
0.000392853496
5.22457514e-05
7.51609564e-05
0.00032388672
5.01978727e-05
6.11288632e-05
0.000266759381
4.04819033e-05
4.40932805e-05
0.00022383987
3.04892879e-05
2.98040874e-05
0.00019312546
2.23538249e-05
1.95862313e-05
0.000171288664
1.62940666e-05
1.29400919e-05
0.000155546344
1.18554532e-05
8.78114771e-06
0.000143961566
8.6119715e-06
6.2209939e-06
0.000135222777
6.25582231e-06
4.65188149e-06
0.00012845901
4.54490305e-06
3.66978207e-06
0.000123100991
3.29445964e-06
3.02680423e-06
0.000118773341
2.37165924e-06
2.58207142e-06
0.000115223047
1.68290014e-06
2.25661557e-06
0.000112275275
1.16289093e-06
2.00532008e-06
0.000109805587
7.66693296e-07
1.80203974e-06
0.000107722386
4.63567269e-07
1.63133834e-06
0.000105955657
2.32444569e-07
1.48382528e-06
0.000104449968
5.8726058e-08
1.35352393e-06
0.000103160368
-6.79776194e-08
1.23639035e-06
0.000102049519
-1.5520278e-07
1.12958847e-06
0.000101085616
-2.08533251e-07
1.03111948e-06
0.000100241057
-2.32365823e-07
9.39574862e-07
9.94916041e-05
-2.3038751e-07
8.53957073e-07
9.88158415e-05
-2.0589491e-07
7.73579098e-07
9.81948233e-05
-1.62016216e-07
6.98000251e-07
9.76118677e-05
-1.01852242e-07
6.26978157e-07
-2.85498352e-08
5.60427462e-07
9.70524429e-05
0.000447769635
1.52548337e-05
6.46871546e-05
0.000388238192
3.58422605e-05
7.59349329e-05
0.000335580917
4.06674571e-05
6.21876897e-05
0.000291761089
3.76325165e-05
4.66692137e-05
0.000257078256
3.18666403e-05
3.33054793e-05
0.000230708185
2.5676879e-05
2.30470156e-05
0.000210913325
2.01519523e-05
1.59369745e-05
0.000195902741
1.55993052e-05
1.12667313e-05
0.000184289984
1.19705871e-05
8.25414115e-06
0.000175104821
9.12969499e-06
6.31129103e-06
0.000167690438
6.92785526e-06
5.03143125e-06
0.000161605407
5.22670234e-06
4.15278982e-06
0.000156547287
3.90991562e-06
3.5198649e-06
0.000152301863
2.88537599e-06
3.04295019e-06
0.000148712397
2.08293205e-06
2.66942621e-06
0.00014566072
1.45084159e-06
2.36753117e-06
0.00014305513
9.51795979e-07
2.1173637e-06
0.000140822556
5.59213584e-07
1.90580652e-06
0.000138903375
2.54180658e-07
1.72372902e-06
0.000137247751
2.3140921e-08
1.56450666e-06
0.000135813219
-1.43849376e-07
1.42318092e-06
0.000134563064
-2.54344537e-07
1.29596797e-06
0.000133465053
-3.14364588e-07
1.18001083e-06
0.000132490557
-3.29053508e-07
1.07316372e-06
0.000131613987
-3.03164568e-07
9.73840609e-07
0.000130812452
-2.41386427e-07
8.80907044e-07
0.000130065556
-1.48551627e-07
7.93595611e-07
-2.97482919e-08
7.11433687e-07
0.000129355322
0.000440472449
9.95935665e-06
6.48230269e-05
0.000375873704
2.46436777e-05
7.57973266e-05
0.000324700416
3.07170002e-05
6.11237436e-05
0.000286196917
3.08571684e-05
4.52788465e-05
0.000257839217
2.81096649e-05
3.21146743e-05
0.000237173778
2.41819175e-05
2.21604004e-05
0.000221931214
2.00723934e-05
1.53221225e-05
0.000210342619
1.63051665e-05
1.08827327e-05
0.00020120262
1.30585433e-05
8.05204375e-06
0.000193745359
1.03445645e-05
6.24239206e-06
0.00018750173
8.11437762e-06
5.05710704e-06
0.000182186225
6.29925212e-06
4.24295662e-06
0.000177617833
4.82836651e-06
3.64994219e-06
0.000173672343
3.63743101e-06
3.19343635e-06
0.000170256981
2.67225136e-06
2.82604379e-06
0.000167297588
1.88946021e-06
2.52077626e-06
0.000164732096
1.25565326e-06
2.26163665e-06
0.000162507108
7.45779419e-07
2.03842307e-06
0.000160575928
3.41355967e-07
1.84400617e-06
0.000158897245
2.88290654e-08
1.67299545e-06
0.00015743415
-2.01858657e-07
1.52110566e-06
0.000156153402
-3.58432953e-07
1.38483793e-06
0.000155024834
-4.47139507e-07
1.26134343e-06
0.000154020931
-4.73464569e-07
1.14831447e-06
0.000153116547
-4.42697733e-07
1.04391853e-06
0.00015228875
-3.60331029e-07
9.46742116e-07
0.000151516781
-2.32321386e-07
8.55738582e-07
-6.52288654e-08
7.70176662e-07
0.000150782086
0.000437877952
7.06312462e-06
6.50182794e-05
0.0003684565
1.78001308e-05
7.62649973e-05
0.000314729247
2.34042831e-05
6.10399695e-05
0.000276412719
2.47884729e-05
4.43852228e-05
0.000250111513
2.36932462e-05
3.07176238e-05
0.000232366877
2.13260339e-05
2.06005185e-05
0.000220181872
1.84520474e-05
1.3805351e-05
0.000211415254
1.55558619e-05
9.51592339e-06
0.000204717346
1.28797283e-05
6.87672338e-06
0.000199292237
1.05105294e-05
5.25914455e-06
0.000194696764
8.46172625e-06
4.2481253e-06
0.000190696422
6.71496407e-06
3.58463118e-06
0.000187168561
5.23862905e-06
3.11759945e-06
0.000184044894
3.99750344e-06
2.76359579e-06
0.000181281284
2.9580135e-06
2.47784892e-06
0.000178843314
2.09078315e-06
2.23664807e-06
0.00017670009
1.37153622e-06
2.02734148e-06
0.000174822021
7.81031239e-07
1.84281769e-06
0.000173180275
3.04476405e-07
1.67862619e-06
0.000171746826
-6.92866949e-08
1.53156588e-06
0.000170494594
-3.48705854e-07
1.3990791e-06
0.000169397544
-5.4036642e-07
1.27898356e-06
0.000168430731
-6.49713811e-07
1.16938843e-06
0.000167570389
-6.81770396e-07
1.06864779e-06
0.00016679403
-6.41703331e-07
9.75364274e-07
0.000166080575
-5.35264144e-07
8.88388344e-07
0.000165410537
-3.69094744e-07
8.0681209e-07
-1.5088897e-07
7.29955748e-07
0.000164766241
0.000436605973
5.27629909e-06
6.51808522e-05
0.000364323327
1.34343786e-05
7.66483973e-05
0.000308253494
1.82414948e-05
6.12326196e-05
0.00026885244
2.00670759e-05
4.41224506e-05
0.000242608852
1.98815679e-05
3.00552657e-05
0.000225726729
1.85097501e-05
1.96984067e-05
0.000214857148
1.65301485e-05
1.27914808e-05
0.00020758966
1.4342844e-05
8.48050643e-06
0.000202404237
1.2185363e-05
5.87978823e-06
0.00019840864
1.01735507e-05
4.33257745e-06
0.000195111706
8.35433112e-06
3.40432962e-06
0.000192261185
6.73965811e-06
2.8258277e-06
0.000189735136
5.3239047e-06
2.44077389e-06
0.000187476571
4.09328316e-06
2.16278662e-06
0.000185457716
3.03123766e-06
1.94563116e-06
0.000183661871
2.12144166e-06
1.76518664e-06
0.000182075014
1.34933947e-06
1.60905339e-06
0.00018068249
7.02798593e-07
1.47075683e-06
0.000179468072
1.72210469e-07
1.3466845e-06
0.000178414039
-2.49797824e-07
1.23454331e-06
0.000177501521
-5.68848151e-07
1.1326605e-06
0.000176710814
-7.8932785e-07
1.03966852e-06
0.000176021786
-9.15050881e-07
9.54364525e-07
0.000175414234
-9.49885397e-07
8.75667285e-07
0.000174868223
-8.98313751e-07
8.02621071e-07
0.000174364462
-7.65905691e-07
7.34402303e-07
0.000173884707
-5.59665601e-07
6.70326549e-07
-2.88218072e-07
6.09851147e-07
0.000173412185
0.000435884092
4.09298812e-06
6.52992186e-05
0.000361910572
1.04690858e-05
7.69388116e-05
0.000304146457
1.45082173e-05
6.14973923e-05
0.000263617215
1.64111693e-05
4.41851478e-05
0.000236882521
1.67264634e-05
2.98897992e-05
0.000220030922
1.59987953e-05
1.93625531e-05
0.000209559111
1.46568967e-05
1.23450633e-05
0.000202914613
1.30179442e-05
7.969399e-06
0.000198469785
1.12910475e-05
5.33914398e-06
0.000195260114
9.59719955e-06
3.78602305e-06
0.000192748533
8.00002661e-06
2.86588669e-06
0.000190654433
6.52970732e-06
2.30405081e-06
0.000188839523
5.19757927e-06
1.94123578e-06
0.000187239078
4.00479161e-06
1.68893739e-06
0.000185823601
2.94745546e-06
1.49925876e-06
0.0001845785
2.01968895e-06
1.34685311e-06
0.000183493992
1.21538451e-06
1.21846318e-06
0.00018256057
5.29171368e-07
1.10704879e-06
0.000181767263
-4.31474202e-08
1.00866445e-06
0.000181101193
-5.04629651e-07
9.20900971e-07
0.000180547614
-8.57345275e-07
8.4207642e-07
0.00018009014
-1.10277111e-06
7.70916727e-07
0.000179711131
-1.24238874e-06
7.06346535e-07
0.000179392084
-1.27826826e-06
6.47429405e-07
0.00017911408
-1.21365388e-06
5.93343916e-07
0.000178858298
-1.05349644e-06
5.43373686e-07
0.000178606592
-8.0486418e-07
4.96904508e-07
-4.77167808e-07
4.5342333e-07
0.000178342118
0.000435447693
3.25446374e-06
6.53908315e-05
0.000360403641
8.34355954e-06
7.71695769e-05
0.000301439648
1.17192689e-05
6.17529412e-05
0.000259975464
1.35274295e-05
4.43479242e-05
0.000232681414
1.40958179e-05
2.99246958e-05
0.000215604832
1.37796768e-05
1.92957009e-05
0.00020516285
1.28886067e-05
1.2210272e-05
0.000198724068
1.16669086e-05
7.78981859e-06
0.000194596392
1.0288602e-05
5.13012203e-06
0.000191769468
8.86686329e-06
3.55726098e-06
0.000189675736
7.47078723e-06
2.62297171e-06
0.000188014177
6.14049264e-06
2.05077488e-06
0.000186632609
4.89812342e-06
1.68102355e-06
0.000185457149
3.75515703e-06
1.42509441e-06
0.00018445277
2.71700947e-06
1.23482413e-06
0.000183602057
1.78591878e-06
1.08448251e-06
0.0001828943
9.62759824e-07
9.60381121e-07
0.000182320272
2.4815203e-07
8.55046891e-07
0.000181869968
-3.56993009e-07
7.64149221e-07
0.000181531653
-8.5127082e-07
6.84955079e-07
0.000181291564
-1.23280685e-06
6.15550565e-07
0.000181134003
-1.4996896e-06
5.54478739e-07
0.000181041553
-1.65047888e-06
5.00540383e-07
0.000180995406
-1.68483903e-06
4.52717101e-07
0.000180975846
-1.60422103e-06
4.10127724e-07
0.000180962857
-1.41251071e-06
3.72003927e-07
0.000180936873
-1.11655162e-06
3.37671616e-07
-7.26446619e-07
3.06540606e-07
0.000180879612
0.000435162647
2.62981504e-06
6.54620019e-05
0.000359405445
6.75245585e-06
7.73483048e-05
0.000299588264
9.57112726e-06
6.19653225e-05
0.000257389608
1.12095167e-05
4.45165693e-05
0.000229585396
1.18787153e-05
3.00213147e-05
0.000212219583
1.18123182e-05
1.93331728e-05
0.000201668226
1.12303662e-05
1.22095975e-05
0.000195252934
1.03173037e-05
7.76489834e-06
0.000191239951
9.21305714e-06
5.08852831e-06
0.000188587509
8.01682138e-06
3.50248398e-06
0.000186706677
6.79571445e-06
2.55590512e-06
0.000185282178
5.5935649e-06
1.97142736e-06
0.000184152087
4.43851451e-06
1.58969942e-06
0.000183235823
3.34872461e-06
1.32269572e-06
0.000182493904
2.33621939e-06
1.12270851e-06
0.000181906132
1.40943508e-06
9.64255017e-07
0.000181460223
5.74939246e-07
8.33728641e-07
0.000181146192
-1.61441112e-07
7.23623854e-07
0.000180953699
-7.94030062e-07
6.29529665e-07
0.000180870787
-1.31692568e-06
5.48565688e-07
0.000180883381
-1.72411009e-06
4.78708859e-07
0.000180975125
-2.00982102e-06
4.18387799e-07
0.000181127449
-2.16911685e-06
3.6631372e-07
0.000181319843
-2.19862692e-06
3.21393329e-07
0.000181530353
-2.09741139e-06
2.82681522e-07
0.000181736302
-1.86781107e-06
2.49351418e-07
0.000181915243
-1.51615121e-06
2.2065877e-07
-1.05318021e-06
1.95921293e-07
0.000182046056
0.000434966099
2.14674687e-06
6.55169692e-05
0.000358714517
5.51803845e-06
7.74859996e-05
0.00029828025
7.87029155e-06
6.21351029e-05
0.000255510889
9.31298108e-06
4.46658969e-05
0.000227269122
9.99201442e-06
3.01284689e-05
0.000209613324
1.00642436e-05
1.9403873e-05
0.000198901352
9.68528234e-06
1.22570567e-05
0.000192427348
8.99263669e-06
7.79867117e-06
0.000188430341
8.09638193e-06
5.11368234e-06
0.000185846288
7.07998946e-06
3.5208855e-06
0.000184070179
6.00446719e-06
2.56735638e-06
0.00018277572
4.91309883e-06
1.97492501e-06
0.000181793477
3.83638211e-06
1.58437434e-06
0.000181037799
2.7962372e-06
1.30816492e-06
0.00018046591
1.80904975e-06
1.09905824e-06
0.000180055619
8.87808252e-07
9.31917407e-07
0.00017979355
4.36468353e-08
7.93359899e-07
0.000179669201
-7.13136242e-07
6.76044375e-07
0.000179671934
-1.3723528e-06
5.75588754e-07
0.000179789486
-1.92363848e-06
4.89160009e-07
0.000180007188
-2.35655583e-06
4.14743589e-07
0.000180307575
-2.66097767e-06
3.50769807e-07
0.000180670285
-2.82779052e-06
2.95963647e-07
0.000181072252
-2.8498398e-06
2.49246193e-07
0.000181488212
-2.72304085e-06
2.09669747e-07
0.00018189156
-2.44754554e-06
1.76386389e-07
0.000182255555
-2.02878272e-06
1.48637429e-07
-1.47815966e-06
1.2573208e-07
0.000182554803
0.000434825332
1.76185812e-06
6.55595565e-05
0.000358218457
4.53222504e-06
7.7592689e-05
0.000297327729
6.49166273e-06
6.22693574e-05
0.000254113676
7.73656675e-06
4.47904685e-05
0.000225505525
8.3732706e-06
3.02268953e-05
0.000207581539
8.50975835e-06
1.94784714e-05
0.000196694241
8.2563288e-06
1.23162519e-05
0.000190122934
7.71474712e-06
7.84919706e-06
0.000186089671
6.97034615e-06
5.15929876e-06
0.000183515178
6.09150528e-06
3.56297755e-06
0.000181782569
5.13134468e-06
2.60573168e-06
0.000180556915
4.13004694e-06
2.00870523e-06
0.000179662701
3.11792997e-06
1.61266541e-06
0.000179010145
2.11844681e-06
1.3303456e-06
0.000178553862
1.15052219e-06
1.11481043e-06
0.000178270208
2.30299054e-07
9.41162328e-07
0.000178145191
-6.2755682e-07
7.96220368e-07
0.000178168163
-1.40884126e-06
6.7273161e-07
0.000178328563
-2.09914282e-06
5.66390298e-07
0.00017861408
-2.68359822e-06
4.74441894e-07
0.000179009569
-3.14697197e-06
3.94926911e-07
0.00017949638
-3.47412688e-06
3.26338234e-07
0.000180052036
-3.65088707e-06
2.67440515e-07
0.000180650268
-3.66527032e-06
2.17199247e-07
0.0001812615
-3.50900533e-06
1.74732673e-07
0.000181853867
-3.17917711e-06
1.39264837e-07
0.000182394763
-2.67976934e-06
1.10090576e-07
-2.02279595e-06
8.65414498e-08
0.000182852859
0.000434721145
1.44792036e-06
6.55927932e-05
0.000357850556
3.72679775e-06
7.76760174e-05
0.000296614153
5.35269526e-06
6.23753704e-05
0.000253050134
6.40874186e-06
4.48918446e-05
0.000224137307
6.97487866e-06
3.031122e-05
0.000205973436
7.12707023e-06
1.95465599e-05
0.000194912302
6.94391373e-06
1.23735496e-05
0.000188226236
6.50041129e-06
7.90040172e-06
0.000184127402
5.86198854e-06
5.20719174e-06
0.000181526701
5.08355712e-06
3.60864828e-06
0.000179798978
4.20995765e-06
2.64910941e-06
0.000178602906
3.2769242e-06
2.04919471e-06
0.000177758269
2.31295015e-06
1.64961557e-06
0.000177172055
1.34140588e-06
1.36325519e-06
0.000176796898
3.82323162e-07
1.14335525e-06
0.000176608209
-5.46200889e-07
9.65188789e-07
0.000176591815
-1.42681596e-06
8.15651863e-07
0.000176737425
-2.24196797e-06
6.87516857e-07
0.000177035004
-2.97328701e-06
5.7656453e-07
0.000177472602
-3.60127529e-06
4.80078539e-07
0.000178034898
-4.10539873e-06
3.96131042e-07
0.000178702156
-4.46464627e-06
3.23260902e-07
0.000179449568
-4.65860232e-06
2.6030367e-07
0.000180247034
-4.66904732e-06
2.06310997e-07
0.000181059562
-4.48202595e-06
1.60492467e-07
0.000181848422
-4.09020363e-06
1.22167319e-07
0.00018257313
-3.49519658e-06
9.07193299e-08
-2.70942215e-06
6.55490231e-08
0.000183194208
0.0004346417
1.1872155e-06
6.56190048e-05
0.000357569542
3.05712604e-06
7.77418313e-05
0.000296065002
4.39760512e-06
6.24596312e-05
0.000252221403
5.27843265e-06
4.49739088e-05
0.000223054329
5.76033632e-06
3.03816173e-05
0.00020467852
5.89742559e-06
1.96054539e-05
0.00019345193
5.74594576e-06
1.24245587e-05
0.000186644531
5.36097805e-06
7.9468311e-06
0.000182463254
4.79216154e-06
5.251104e-06
0.000179813104
4.08280831e-06
3.65089849e-06
0.000178063579
3.269792e-06
2.68968976e-06
0.000176868995
2.38380607e-06
2.08770188e-06
0.000176045853
1.45049877e-06
1.68559251e-06
0.000175498924
4.92000268e-07
1.39633448e-06
0.000175179636
-4.71701612e-07
1.1733122e-06
0.000175063105
-1.4215396e-06
9.91869482e-07
0.000175135657
-2.3382637e-06
8.38895397e-07
0.000175388002
-3.20154244e-06
7.0722891e-07
0.000175811308
-3.98925072e-06
5.9265807e-07
0.000176394645
-4.6770836e-06
4.9247046e-07
0.000177123083
-5.23859906e-06
4.04762361e-07
0.000177976142
-5.64581952e-06
3.2811411e-07
0.000178926633
-5.87051628e-06
2.61422993e-07
0.000179940019
-5.88626229e-06
2.03828446e-07
0.000180974581
-5.67123723e-06
1.54649502e-07
0.000181982655
-5.21160875e-06
1.13331401e-07
0.00018291315
-4.50508086e-06
7.93890051e-08
-3.56394032e-06
5.23392563e-08
0.00018371533
0.000434579419
9.67836653e-07
6.56399605e-05
0.000357348879
2.49311295e-06
7.77945546e-05
0.000295631212
3.58788088e-06
6.25273922e-05
0.000251560139
4.30883947e-06
4.50406673e-05
0.000222178749
4.70171813e-06
3.04400086e-05
0.000203615789
4.80500218e-06
1.96553833e-05
0.000192234295
4.65890035e-06
1.2468539e-05
0.000185304408
4.30361404e-06
7.98725128e-06
0.000181030751
3.7762986e-06
5.28951956e-06
0.000178315145
3.1104307e-06
3.68798278e-06
0.000176523959
2.33552249e-06
2.72545491e-06
0.000175308869
1.47704342e-06
2.12185166e-06
0.000174484424
5.57162743e-07
1.71778107e-06
0.000173954221
-4.04107412e-07
1.42631027e-06
0.000173669381
-1.38775599e-06
1.20089412e-06
0.000173605621
-2.37463609e-06
1.0168557e-06
0.00017375063
-3.34441868e-06
8.61145674e-07
0.000174097055
-4.27456861e-06
7.26600668e-07
0.000174638293
-5.13947782e-06
6.08988921e-07
0.000175365505
-5.90988312e-06
5.05587584e-07
0.000176265144
-6.55273831e-06
4.14499588e-07
0.000177316745
-7.03175355e-06
3.34333524e-07
0.000178491016
-7.30883443e-06
2.6404684e-07
0.00017974851
-7.34663014e-06
2.02873292e-07
0.00018103929
-7.1122852e-06
1.50267907e-07
0.000182304103
-6.582268e-06
1.05847166e-07
0.00018347749
-5.74778363e-06
6.93151172e-08
-4.61980711e-06
4.03654632e-08
0.000184492992
0.000434529279
7.81567693e-07
6.56569905e-05
0.00035717095
2.0139494e-06
7.78374937e-05
0.000295279685
2.89642894e-06
6.25827182e-05
0.000251019734
3.47320687e-06
4.50955847e-05
0.000221455063
3.7777301e-06
3.04886601e-05
0.000202725679
3.83679741e-06
1.96975879e-05
0.00019119962
3.67882898e-06
1.25061301e-05
0.000184148437
3.33277823e-06
8.02201897e-06
0.000179776188
2.82587647e-06
5.32266993e-06
0.000176983282
2.18327921e-06
3.72005746e-06
0.000175134552
1.42777913e-06
2.75647199e-06
0.000173880387
5.79634248e-07
2.15157449e-06
0.000173034486
-3.42902461e-07
1.74596548e-06
0.000172500273
-1.32265276e-06
1.45275818e-06
0.000172229569
-2.34242129e-06
1.22536883e-06
0.000172199665
-3.38391805e-06
1.0391851e-06
0.000172400692
-4.42661342e-06
8.81167468e-07
0.000172828509
-5.44650048e-06
7.44114507e-07
0.000173480197
-6.41492924e-06
6.2376337e-07
0.000174350605
-7.29765645e-06
5.17365199e-07
0.0001754292
-8.0543423e-06
4.23008575e-07
0.000176696952
-8.63882232e-06
3.39316853e-07
0.000178123344
-9.00053571e-06
2.65308767e-07
0.000179663905
-9.08752278e-06
2.00332374e-07
0.000181258912
-8.85131187e-06
1.44019096e-07
0.000182834157
-8.25373701e-06
9.62240908e-08
0.000184304618
-7.27517709e-06
5.69329288e-08
-5.92289265e-06
2.61181211e-08
0.000185581585
0.000434487865
6.22617179e-07
6.56710858e-05
0.000357023776
1.60493838e-06
7.78731019e-05
0.000294987653
2.30386266e-06
6.26286905e-05
0.000250567492
2.75191435e-06
4.51414549e-05
0.000220843378
2.97219288e-06
3.05296515e-05
0.000201964271
2.98240358e-06
1.97335002e-05
0.000190302679
2.80205364e-06
1.2538367e-05
0.000183132037
2.45144284e-06
8.05197674e-06
0.000178656778
1.94981813e-06
5.35131713e-06
0.000175776984
1.31522787e-06
3.74784495e-06
0.000173857014
5.64329361e-07
2.78341884e-06
0.000172546903
-2.8778244e-07
2.17752761e-06
0.000171660401
-1.22714662e-06
1.77074505e-06
0.000171101693
-2.24004332e-06
1.47609897e-06
0.000170824187
-3.31198311e-06
1.24706738e-06
0.000170807769
-4.42657532e-06
1.05907416e-06
0.000171046301
-5.56417761e-06
8.99032231e-07
0.000171540432
-6.7003342e-06
7.59701802e-07
0.000172292867
-7.80412732e-06
6.36763363e-07
0.000173304426
-8.83662732e-06
5.27411223e-07
0.000174570088
-9.7497061e-06
4.29701746e-07
0.000176074685
-1.04856813e-05
3.42261723e-07
0.000177788356
-1.09783756e-05
2.64169595e-07
0.000179662251
-1.11563296e-05
1.94911983e-07
0.00018162548
-1.09488995e-05
1.34358316e-07
0.000183584724
-1.02956912e-05
8.27105158e-08
0.00018542817
-9.15901448e-06
4.03915116e-08
-7.53771263e-06
7.82809318e-09
0.000187035162
0.000434452816
4.86822998e-07
6.56829792e-05
0.000356899066
1.25550087e-06
7.79031892e-05
0.000294739223
1.79609504e-06
6.26676112e-05
0.000250180246
2.13045113e-06
4.51804413e-05
0.000220314895
2.27283975e-06
3.05647049e-05
0.000201299199
2.23367569e-06
1.97644229e-05
0.000189509432
2.02553873e-06
1.25662812e-05
0.00018222093
1.66193027e-06
8.07801465e-06
0.000177638907
1.15555476e-06
5.37628504e-06
0.000174663699
5.18307215e-07
3.77212806e-06
0.00017265977
-2.38832485e-07
2.80709063e-06
0.000171277405
-1.10592485e-06
2.2005067e-06
0.000170331103
-2.07360986e-06
1.79276537e-06
0.000169726453
-3.13232786e-06
1.49693427e-06
0.000169419212
-4.27129771e-06
1.26655486e-06
0.000169392885
-5.47725388e-06
1.07700544e-06
0.000169646431
-6.73288658e-06
9.1516183e-07
0.000170187163
-8.01477239e-06
7.73706151e-07
0.000171025866
-9.29106148e-06
6.48230869e-07
0.000172172446
-1.05190561e-05
5.35849075e-07
0.000173631055
-1.16428698e-05
4.34554906e-07
0.000175394299
-1.25918809e-05
3.42954835e-07
0.000177436494
-1.32807526e-05
2.60182158e-07
0.000179706532
-1.36122611e-05
1.85894219e-07
0.000182121699
-1.34843572e-05
1.20290707e-07
0.000184564699
-1.28027862e-05
6.40947896e-08
0.000186886896
-1.14996433e-05
1.84320889e-08
-9.5563389e-06
-1.55298591e-08
0.000188921052
0.000434422481
3.71135572e-07
6.56932077e-05
0.000356791029
9.57874147e-07
7.792908e-05
0.000294523229
1.36271857e-06
6.27011774e-05
0.000249841542
1.59796371e-06
4.52141748e-05
0.000219848863
1.67034874e-06
3.05951702e-05
0.000200706772
1.58433845e-06
1.9791428e-05
0.000188794555
1.3470003e-06
1.25907552e-05
0.000181389199
9.66378211e-07
8.10090684e-06
0.000176696746
4.49723966e-07
5.39828328e-06
0.000173617934
-1.96513e-07
3.79363232e-06
0.000171517561
-9.66700517e-07
2.82824024e-06
0.000170046534
-1.85599855e-06
2.22110054e-06
0.000169020376
-2.8600283e-06
1.81257577e-06
0.000168346414
-3.97418297e-06
1.51581625e-06
0.000167983332
-5.1925379e-06
1.28432234e-06
0.000167919158
-6.50651932e-06
1.09343819e-06
0.000168159317
-7.90300219e-06
9.29957054e-07
0.000168719775
-9.36168961e-06
7.86458232e-07
0.000169622387
-1.08520882e-05
6.58415261e-07
0.000170890218
-1.23297038e-05
5.42816292e-07
0.000172541779
-1.37319768e-05
4.37546327e-07
0.000174583492
-1.49747475e-05
3.41153722e-07
0.000176999993
-1.5950069e-05
2.5281567e-07
0.000179742712
-1.65273849e-05
1.7240461e-07
0.00018271834
-1.65605768e-05
1.00591961e-07
0.000185780517
-1.59038684e-05
3.89040802e-08
0.000188730051
-1.44387742e-05
-1.04027758e-08
-1.21120382e-05
-4.48809976e-08
0.000191330631
0.000434395709
2.73267727e-07
6.57021593e-05
0.000356695627
7.06226788e-07
7.79517309e-05
0.000294331852
9.95874632e-07
6.27306199e-05
0.000249539779
1.14618356e-06
4.52438537e-05
0.000219430521
1.15754506e-06
3.06220626e-05
0.000200169965
1.02954987e-06
1.98153434e-05
0.000188139672
7.64811472e-07
1.26124817e-05
0.000180617864
3.66931271e-07
8.12125467e-06
0.000175811171
-1.61507976e-07
5.41792433e-06
0.000172620595
-8.1895262e-07
3.81301497e-06
0.000170411283
-1.60472291e-06
2.84733408e-06
0.000168834672
-2.51911465e-06
2.2397266e-06
0.000167707208
-3.56319391e-06
1.83062877e-06
0.000166938007
-4.73812575e-06
1.53314338e-06
0.000166488898
-6.04416701e-06
1.30073747e-06
0.000166352982
-7.47928489e-06
1.10868145e-06
0.000166543237
-9.03692451e-06
9.43667159e-07
0.000167086415
-1.07030031e-05
7.98135235e-07
0.000168018782
-1.2451844e-05
6.67388403e-07
0.000169381568
-1.42407152e-05
5.48226112e-07
0.000171214713
-1.60034766e-05
4.38355145e-07
0.000173547461
-1.76437006e-05
3.36205408e-07
0.000176384982
-1.90285671e-05
2.40976557e-07
0.000179690782
-1.99860093e-05
1.52824785e-07
0.000183366326
-2.0309254e-05
7.31323118e-08
0.000187232408
-1.97746492e-05
4.69839406e-09
0.000191020999
-1.81790373e-05
-4.83282973e-08
-1.5401485e-05
-8.11823892e-08
0.000194391627
0.000434371713
1.9144727e-07
6.57101083e-05
0.000356610092
4.96031459e-07
7.79718179e-05
0.000294159726
6.89432818e-07
6.27568087e-05
0.000249266973
7.68605548e-07
4.5270331e-05
0.00021904968
7.28724567e-07
3.06461136e-05
0.000199677017
5.65441055e-07
1.98367717e-05
0.000187532081
2.77789143e-07
1.26319577e-05
0.000179893825
-1.34374555e-07
8.13956173e-06
0.000174969041
-6.72490777e-07
5.43576621e-06
0.000171658712
-1.33924106e-06
3.83061715e-06
0.000169327965
-2.13862637e-06
2.86464968e-06
0.000167628278
-3.07616269e-06
2.25673403e-06
0.000166376588
-4.15872813e-06
1.84722343e-06
0.000165483382
-5.39409665e-06
1.54917685e-06
0.000164913335
-6.79012137e-06
1.31600106e-06
0.000164664566
-8.35339365e-06
1.12287755e-06
0.000164758267
-1.00869851e-05
9.56359229e-07
0.000165233671
-1.19870999e-05
8.08692764e-07
0.000166144849
-1.40379562e-05
6.74934532e-07
0.000167557081
-1.62045458e-05
5.51598679e-07
0.000169540835
-1.84233337e-05
4.36103402e-07
0.000172161053
-2.05905749e-05
3.26656501e-07
0.000175459716
-2.25496629e-05
2.22432297e-07
0.000179429991
-2.40802561e-05
1.23970941e-07
0.000183981967
-2.48949982e-05
3.3767434e-08
0.000188905315
-2.4654697e-05
-4.33007887e-08
0.000193840515
-2.30147638e-05
-9.94743403e-08
-1.97229278e-05
-1.25400805e-07
0.000198287358
0.000434349972
1.24234457e-07
6.57172412e-05
0.000356532601
3.23601808e-07
7.79898022e-05
0.000294003328
4.3837256e-07
6.27803338e-05
0.000249017914
4.59836139e-07
4.52941842e-05
0.000218699755
3.79064011e-07
3.06678196e-05
0.000199220395
1.88688493e-07
1.98561124e-05
0.000186963825
-1.15230363e-07
1.26495888e-05
0.000179209146
-5.35989857e-07
8.15629428e-06
0.000174162807
-1.07819293e-06
5.45204083e-06
0.000170725264
-1.74828471e-06
3.84658524e-06
0.0001682609
-2.55470628e-06
2.8804438e-06
0.000166420479
-3.50807861e-06
2.27233584e-06
0.00016502055
-4.62133144e-06
1.86253167e-06
0.000163971976
-5.90955662e-06
1.56403341e-06
0.000163241227
-7.38954532e-06
1.33017313e-06
0.000162830607
-9.07878187e-06
1.13600803e-06
0.000162769199
-1.09934752e-05
9.67898259e-07
0.000163109401
-1.31451176e-05
8.1781534e-07
0.000163925838
-1.55348427e-05
6.80450464e-07
0.000165314037
-1.81446189e-05
5.51873803e-07
0.000167385984
-2.09243053e-05
4.29024465e-07
0.000170259661
-2.37739517e-05
3.09699686e-07
0.000174038689
-2.65216375e-05
1.92945973e-07
0.000178776528
-2.88979086e-05
7.98127432e-08
0.000184422116
-3.05150413e-05
-2.55451949e-08
0.000190750289
-3.08680384e-05
-1.1483303e-07
0.000197287729
-2.93788269e-05
-1.73378053e-07
-2.55420515e-05
-1.82779804e-07
0.000203289631
0.000434330177
7.0379709e-08
6.57236786e-05
0.000356462062
1.85737732e-07
7.800598e-05
0.000293860564
2.383047e-07
6.28015668e-05
0.000248789566
2.15061823e-07
4.53157725e-05
0.000218376998
1.04153622e-07
3.06874777e-05
0.000198796067
-1.04061452e-07
1.98736813e-05
0.000186431052
-4.15965409e-07
1.26657497e-05
0.000178560552
-8.37077532e-07
8.17158738e-06
0.000173390163
-1.37458386e-06
5.4667794e-06
0.000169819037
-2.03825402e-06
3.86109411e-06
0.000167209923
-2.84045242e-06
2.89485972e-06
0.000165211801
-3.79659249e-06
2.2866354e-06
0.000163639478
-4.92562077e-06
1.87661147e-06
0.000162402536
-6.25033425e-06
1.57771996e-06
0.000161467307
-7.7975047e-06
1.3431883e-06
0.000160838197
-9.59757233e-06
1.1479004e-06
0.000160550223
-1.16834438e-05
9.77942382e-07
0.000160667938
-1.40877123e-05
8.24879635e-07
0.00016128752
-1.68372645e-05
6.82840127e-07
0.000162539551
-1.99438192e-05
5.47170069e-07
0.00016458919
-2.33879135e-05
4.13968718e-07
0.00016762981
-2.7094821e-05
2.80248107e-07
0.000171862536
-3.08990716e-05
1.44708094e-07
0.000177451801
-3.44963477e-05
9.17246031e-09
0.000184446274
-3.73904196e-05
-1.19095623e-07
0.000192655265
-3.88512452e-05
-2.25786265e-07
0.00020148432
-3.79246067e-05
-2.83277452e-07
-3.36198243e-05
-2.60457745e-07
0.000209822549
0.000434312192
2.86874624e-08
6.57295006e-05
0.000356397959
7.94458507e-08
7.80205258e-05
0.000293730447
8.51122966e-08
6.28207046e-05
0.000248580573
2.96633991e-08
4.53352728e-05
0.000218080019
-1.00603052e-07
3.0705311e-05
0.000198402988
-3.1678625e-07
1.98897565e-05
0.000185933427
-6.26893036e-07
1.26804879e-05
0.000177948959
-1.03798539e-06
8.18537563e-06
0.000172653662
-1.55936559e-06
5.48007801e-06
0.000168944533
-2.20335753e-06
3.87423153e-06
0.000166181674
-2.98554415e-06
2.9079497e-06
0.000164010932
-3.92550198e-06
2.29965146e-06
0.000162243582
-5.04771144e-06
1.8894399e-06
0.000160785576
-6.38248358e-06
1.59015568e-06
0.000159600114
-7.96692446e-06
1.35488137e-06
0.000158690038
-9.84575194e-06
1.15825544e-06
0.000158092167
-1.20715359e-05
9.85963562e-07
0.00015787914
-1.47036372e-05
8.28952273e-07
0.000158166033
-1.78046024e-05
6.80444652e-07
0.000159119595
-2.14319231e-05
5.34542109e-07
0.000160967554
-2.56216453e-05
3.85772422e-07
0.000164002706
-3.03594349e-05
2.29460589e-07
0.000168571365
-3.5530827e-05
6.30956058e-08
0.000175030461
-4.08447844e-05
-1.10659974e-07
0.000183646603
-4.5728102e-05
-2.78461469e-07
0.000194394087
-4.91863051e-05
-4.12425963e-07
0.000206617824
-4.96964396e-05
-4.51907384e-07
-4.5303688e-05
-3.53984427e-07
0.000218655669