/*--------------------------------*- C++ -*----------------------------------*\
| =========                 |                                                 |
| \\      /  F ield         | foam-extend: Open Source CFD                    |
|  \\    /   O peration     | Version:     4.1                                |
|   \\  /    A nd           | Web:         http://www.foam-extend.org         |
|    \\/     M anipulation  |                                                 |
\*---------------------------------------------------------------------------*/
FoamFile
{
    version     2.0;
    format      ascii;
    class       pointVectorField;
    location    "0.3";
    object      pointMotionU;
}
// * * * * * * * * * * * * * * * * * * * * * * * * * * * * * * * * * * * * * //

dimensions      [0 1 -1 0 0 0 0];

internalField   nonuniform List<vector> 
40832
(
(0 0 0)
(0 0 0)
(0 0 0)
(0 0 0)
(0 0 0)
(0 0 0)
(0 0 0)
(0 0 0)
(0 0 0)
(0 0 0)
(0 0 0)
(0 0 0)
(0 0 0)
(0 0 0)
(0 0 0)
(0 0 0)
(0 0 0)
(0 0 0)
(0 0 0)
(0 0 0)
(0 0 0)
(0 0 0)
(0 0 0)
(0 0 0)
(0 0 0)
(0 0 0)
(0 0 0)
(0 0 0)
(0 0 0)
(0 0 0)
(0 0 0)
(0 0 0)
(0 0 0)
(0 0 0)
(0 0 0)
(0 0 0)
(0 0 0)
(0 0 0)
(0 0 0)
(0 0 0)
(0 0 0)
(0 0 0)
(0 0 0)
(0 0 0)
(0 0 0)
(0 0 0)
(0 0 0)
(0 0 0)
(0 0 0)
(0 0 0)
(0 0 0)
(0 0 0)
(0 0 0)
(0 0 0)
(0 0 0)
(0 0 0)
(0 0 0)
(0 0 0)
(0 0 0)
(0 0 0)
(0 0 0)
(0 0 0)
(0 0 0)
(0 0 0)
(0 0 0)
(0 0 0)
(0 0 0)
(0 0 0)
(0 0 0)
(0 0 0)
(0 0 0)
(0 0 0)
(0 0 0)
(0 0 0)
(0 0 0)
(0 0 0)
(0 0 0)
(0 0 0)
(0 0 0)
(0 0 0)
(0 0 0)
(0 0 0)
(0 0 0)
(0 0 0)
(0 0 0)
(0 0 0)
(0 0 0)
(0 0 0)
(0 0 0)
(0 0 0)
(0 0 0)
(0 0 0)
(0 0 0)
(0 0 0)
(0 0 0)
(0 0 0)
(0 0 0)
(0 0 0)
(0 0 0)
(0 0 0)
(0 0 0)
(0 0 0)
(0 0 0)
(0 0 0)
(0 0 0)
(0 0 0)
(0 0 0)
(0 0 0)
(0 0 0)
(0 0 0)
(0 0 0)
(0 0 0)
(0 0 0)
(0 0 0)
(0 0 0)
(0 0 0)
(0 0 0)
(0 0 0)
(0 0 0)
(0 0 0)
(0 0 0)
(0 0 0)
(0 0 0)
(0 0 0)
(0 0 0)
(0 0 0)
(0 0 0)
(0 0 0)
(0 0 0)
(0 0 0)
(0 0 0)
(0 0 0)
(0 0 0)
(0 0 0)
(0 0 0)
(0 0 0)
(0 0 0)
(0 0 0)
(0 0 0)
(0 0 0)
(0 0 0)
(0 0 0)
(0 0 0)
(0 0 0)
(0 0 0)
(0 0 0)
(0 0 0)
(0 0 0)
(0 0 0)
(0 0 0)
(0 0 0)
(0 0 0)
(0 0 0)
(0 0 0)
(0 0 0)
(0 0 0)
(0 0 0)
(0 0 0)
(0 0 0)
(0 0 0)
(0 0 0)
(0 0 0)
(0 0 0)
(0 0 0)
(0 0 0)
(0 0 0)
(0 0 0)
(0 0 0)
(0 0 0)
(0 0 0)
(0 0 0)
(0 0 0)
(0 0 0)
(0 0 0)
(0 0 0)
(0 0 0)
(0 0 0)
(0 0 0)
(0 0 0)
(0 0 0)
(0 0 0)
(0 0 0)
(0 0 0)
(0 0 0)
(0 0 0)
(0 0 0)
(0 0 0)
(0 0 0)
(0 0 0)
(0 0 0)
(0 0 0)
(0 0 0)
(0 0 0)
(0 0 0)
(0 0 0)
(0 0 0)
(0 0 0)
(0 0 0)
(0 0 0)
(0 0 0)
(0 0 0)
(0 0 0)
(0 0 0)
(0 0 0)
(0 0 0)
(0 0 0)
(0 0 0)
(0 0 0)
(0 0 0)
(0 0 0)
(0 0 0)
(0 0 0)
(0 0 0)
(0 0 0)
(0 0 0)
(0 0 0)
(0 0 0)
(0 0 0)
(0 0 0)
(0 0 0)
(0 0 0)
(0 0 0)
(0 0 0)
(0 0 0)
(0 0 0)
(0 0 0)
(0 0 0)
(0 0 0)
(0 0 0)
(0 0 0)
(0 0 0)
(0 0 0)
(0 0 0)
(0 0 0)
(0 0 0)
(0 0 0)
(0 0 0)
(0 0 0)
(0 0 0)
(0 0 0)
(0 0 0)
(0 0 0)
(0 0 0)
(0 0 0)
(0 0 0)
(0 0 0)
(0 0 0)
(0 0 0)
(0 0 0)
(0 0 0)
(0 0 0)
(0 0 0)
(0 0 0)
(0 0 0)
(0 0 0)
(0 0 0)
(0 0 0)
(0 0 0)
(0 0 0)
(0 0 0)
(0 0 0)
(0 0 0)
(0 0 0)
(0 0 0)
(0 0 0)
(0 0 0)
(0 0 0)
(0 0 0)
(0 0 0)
(0 0 0)
(0 0 0)
(0 0 0)
(0 0 0)
(0 0 0)
(0 0 0)
(0 0 0)
(0 0 0)
(0 0 0)
(0 0 0)
(0 0 0)
(0 0 0)
(0 0 0)
(0 0 0)
(0 0 0)
(0 0 0)
(0 0 0)
(0 0 0)
(0 0 0)
(0 0 0)
(0 0 0)
(0 0 0)
(0 0 0)
(0 0 0)
(0 0 0)
(0 0 0)
(0 0 0)
(0 0 0)
(0 0 0)
(0 0 0)
(0 0 0)
(0 0 0)
(0 0 0)
(0 0 0)
(0 0 0)
(0 0 0)
(0 0 0)
(0 0 0)
(0 0 0)
(0 0 0)
(0 0 0)
(0 0 0)
(0 0 0)
(0 0 0)
(0 0 0)
(0 0 0)
(0 0 0)
(0 0 0)
(0 0 0)
(0 0 0)
(0 0 0)
(0 0 0)
(0 0 0)
(0 0 0)
(0 0 0)
(0 0 0)
(0 0 0)
(0 0 0)
(0 0 0)
(0 0 0)
(0 0 0)
(0 0 0)
(0 0 0)
(0 0 0)
(0 0 0)
(0 0 0)
(0 0 0)
(0 0 0)
(0 0 0)
(0 0 0)
(0 0 0)
(0 0 0)
(0 0 0)
(0 0 0)
(0 0 0)
(0 0 0)
(0 0 0)
(0 0 0)
(0 0 0)
(0 0 0)
(0 0 0)
(0 0 0)
(0 0 0)
(0 0 0)
(0 0 0)
(0 0 0)
(0 0 0)
(0 0 0)
(0 0 0)
(0 0 0)
(0 0 0)
(0 0 0)
(0 0 0)
(0 0 0)
(0 0 0)
(0 0 0)
(0 0 0)
(0 0 0)
(0 0 0)
(0 0 0)
(0 0 0)
(0 0 0)
(0 0 0)
(0 0 0)
(0 0 0)
(0 0 0)
(0 0 0)
(0 0 0)
(0 0 0)
(0 0 0)
(0 0 0)
(0 0 0)
(0 0 0)
(0 0 0)
(0 0 0)
(0 0 0)
(0 0 0)
(0 0 0)
(0 0 0)
(0 0 0)
(0 0 0)
(0 0 0)
(0 0 0)
(0 0 0)
(0 0 0)
(0 0 0)
(0 0 0)
(0 0 0)
(0 0 0)
(0 0 0)
(0 0 0)
(0 0 0)
(0 0 0)
(0 0 0)
(0 0 0)
(0 0 0)
(0 0 0)
(0 0 0)
(0 0 0)
(0 0 0)
(0 0 0)
(0 0 0)
(0 0 0)
(0 0 0)
(0 0 0)
(0 0 0)
(0 0 0)
(0 0 0)
(0 0 0)
(0 0 0)
(0 0 0)
(0 0 0)
(0 0 0)
(0 0 0)
(0 0 0)
(0 0 0)
(0 0 0)
(0 0 0)
(0 0 0)
(0 0 0)
(0 0 0)
(0 0 0)
(0 0 0)
(0 0 0)
(0 0 0)
(0 0 0)
(0 0 0)
(0 0 0)
(0 0 0)
(0 0 0)
(0 0 0)
(0 0 0)
(0 0 0)
(0 0 0)
(0 0 0)
(0 0 0)
(0 0 0)
(0 0 0)
(0 0 0)
(0 0 0)
(0 0 0)
(0 0 0)
(0 0 0)
(0 0 0)
(0 0 0)
(0 0 0)
(0 0 0)
(0 0 0)
(0 0 0)
(0 0 0)
(0 0 0)
(0 0 0)
(0 0 0)
(0 0 0)
(0 0 0)
(0 0 0)
(0 0 0)
(0 0 0)
(0 0 0)
(0 0 0)
(0 0 0)
(0 0 0)
(0 0 0)
(0 0 0)
(0 0 0)
(0 0 0)
(0 0 0)
(0 0 0)
(0 0 0)
(0 0 0)
(0 0 0)
(0 0 0)
(0 0 0)
(0 0 0)
(0 0 0)
(0 0 0)
(0 0 0)
(0 0 0)
(0 0 0)
(0 0 0)
(0 0 0)
(0 0 0)
(0 0 0)
(0 0 0)
(0 0 0)
(0 0 0)
(0 0 0)
(0 0 0)
(0 0 0)
(0 0 0)
(0 0 0)
(0 0 0)
(0 0 0)
(0 0 0)
(0 0 0)
(0 0 0)
(0 0 0)
(0 0 0)
(0 0 0)
(0 0 0)
(0 0 0)
(0 0 0)
(0 0 0)
(0 0 0)
(0 0 0)
(0 0 0)
(0 0 0)
(0 0 0)
(0 0 0)
(0 0 0)
(0 0 0)
(0 0 0)
(0 0 0)
(0 0 0)
(0 0 0)
(0 0 0)
(0 0 0)
(0 0 0)
(0 0 0)
(0 0 0)
(0 0 0)
(0 0 0)
(0 0 0)
(0 0 0)
(0 0 0)
(0 0 0)
(0 0 0)
(0 0 0)
(0 0 0)
(0 0 0)
(0 0 0)
(0 0 0)
(0 0 0)
(0 0 0)
(0 0 0)
(0 0 0)
(0 0 0)
(0 0 0)
(0 0 0)
(0 0 0)
(0 0 0)
(0 0 0)
(0 0 0)
(0 0 0)
(0 0 0)
(0 0 0)
(0 0 0)
(0 0 0)
(0 0 0)
(0 0 0)
(0 0 0)
(0 0 0)
(0 0 0)
(0 0 0)
(0 0 0)
(0 0 0)
(0 0 0)
(0 0 0)
(0 0 0)
(0 0 0)
(0 0 0)
(0 0 0)
(0 0 0)
(0 0 0)
(0 0 0)
(0 0 0)
(0 0 0)
(0 0 0)
(0 0 0)
(0 0 0)
(0 0 0)
(0 0 0)
(0 0 0)
(0 0 0)
(0 0 0)
(0 0 0)
(0 0 0)
(0 0 0)
(0 0 0)
(0 0 0)
(0 0 0)
(0 0 0)
(0 0 0)
(0 0 0)
(0 0 0)
(0 0 0)
(0 0 0)
(0 0 0)
(0 0 0)
(0 0 0)
(0 0 0)
(0 0 0)
(0 0 0)
(0 0 0)
(0 0 0)
(0 0 0)
(0 0 0)
(0 0 0)
(0 0 0)
(0 0 0)
(0 0 0)
(0 0 0)
(0 0 0)
(0 0 0)
(0 0 0)
(0 0 0)
(0 0 0)
(0 0 0)
(0 0 0)
(0 0 0)
(0 0 0)
(0 0 0)
(0 0 0)
(0 0 0)
(0 0 0)
(0 0 0)
(0 0 0)
(0 0 0)
(0 0 0)
(0 0 0)
(0 0 0)
(0 0 0)
(0 0 0)
(0 0 0)
(0 0 0)
(0 0 0)
(0 0 0)
(0 0 0)
(0 0 0)
(0 0 0)
(0 0 0)
(0 0 0)
(0 0 0)
(0 0 0)
(0 0 0)
(0 0 0)
(0 0 0)
(0 0 0)
(0 0 0)
(0 0 0)
(0 0 0)
(0 0 0)
(0 0 0)
(0 0 0)
(0 0 0)
(0 0 0)
(0 0 0)
(0 0 0)
(0 0 0)
(0 0 0)
(0 0 0)
(0 0 0)
(0 0 0)
(0 0 0)
(0 0 0)
(0 0 0)
(0 0 0)
(0 0 0)
(0 0 0)
(0 0 0)
(0 0 0)
(0 0 0)
(0 0 0)
(0 0 0)
(0 0 0)
(0 0 0)
(0 0 0)
(0 0 0)
(0 0 0)
(0 0 0)
(0 0 0)
(0 0 0)
(0 0 0)
(0 0 0)
(0 0 0)
(0 0 0)
(0 0 0)
(0 0 0)
(0 0 0)
(0 0 0)
(0 0 0)
(0 0 0)
(0 0 0)
(0 0 0)
(0 0 0)
(0 0 0)
(0 0 0)
(0 0 0)
(0 0 0)
(0 0 0)
(0 0 0)
(0 0 0)
(0 0 0)
(0 0 0)
(0 0 0)
(0 0 0)
(0 0 0)
(0 0 0)
(0 0 0)
(0 0 0)
(0 0 0)
(0 0 0)
(0 0 0)
(0 0 0)
(0 0 0)
(0 0 0)
(0 0 0)
(0 0 0)
(0 0 0)
(0 0 0)
(0 0 0)
(0 0 0)
(0 0 0)
(0 0 0)
(0 0 0)
(0 0 0)
(0 0 0)
(0 0 0)
(0 0 0)
(0 0 0)
(0 0 0)
(0 0 0)
(0 0 0)
(0 0 0)
(0 0 0)
(0 0 0)
(0 0 0)
(0 0 0)
(0 0 0)
(0 0 0)
(0 0 0)
(0 0 0)
(0 0 0)
(0 0 0)
(0 0 0)
(0 0 0)
(0 0 0)
(0 0 0)
(0 0 0)
(0 0 0)
(0 0 0)
(0 0 0)
(0 0 0)
(0 0 0)
(0 0 0)
(0 0 0)
(0 0 0)
(0 0 0)
(0 0 0)
(0 0 0)
(0 0 0)
(0 0 0)
(0 0 0)
(0 0 0)
(0 0 0)
(0 0 0)
(0 0 0)
(0 0 0)
(0 0 0)
(0 0 0)
(0 0 0)
(0 0 0)
(0 0 0)
(0 0 0)
(0 0 0)
(0 0 0)
(0 0 0)
(0 0 0)
(0 0 0)
(0 0 0)
(0 0 0)
(0 0 0)
(0 0 0)
(0 0 0)
(0 0 0)
(0 0 0)
(0 0 0)
(0 0 0)
(0 0 0)
(0 0 0)
(0 0 0)
(0 0 0)
(0 0 0)
(0 0 0)
(0 0 0)
(0 0 0)
(0 0 0)
(0 0 0)
(0 0 0)
(0 0 0)
(0 0 0)
(0 0 0)
(0 0 0)
(0 0 0)
(0 0 0)
(0 0 0)
(0 0 0)
(0 0 0)
(0 0 0)
(0 0 0)
(0 0 0)
(0 0 0)
(0 0 0)
(0 0 0)
(0 0 0)
(0 0 0)
(0 0 0)
(0 0 0)
(0 0 0)
(0 0 0)
(0 0 0)
(0 0 0)
(0 0 0)
(0 0 0)
(0 0 0)
(0 0 0)
(0 0 0)
(0 0 0)
(0 0 0)
(0 0 0)
(0 0 0)
(0 0 0)
(0 0 0)
(0 0 0)
(0 0 0)
(0 0 0)
(0 0 0)
(0 0 0)
(0 0 0)
(0 0 0)
(0 0 0)
(0 0 0)
(0 0 0)
(0 0 0)
(0 0 0)
(0 0 0)
(0 0 0)
(0 0 0)
(0 0 0)
(0 0 0)
(0 0 0)
(0 0 0)
(0 0 0)
(0 0 0)
(0 0 0)
(0 0 0)
(0 0 0)
(0 0 0)
(0 0 0)
(0 0 0)
(0 0 0)
(0 0 0)
(0 0 0)
(0 0 0)
(0 0 0)
(0 0 0)
(0 0 0)
(0 0 0)
(0 0 0)
(0 0 0)
(0 0 0)
(0 0 0)
(-1.01160347e-20 1.12691184e-08 -1.92369652e-21)
(-2.04400684e-20 2.2769838e-08 -3.88693899e-21)
(-3.13561502e-20 3.49298168e-08 -5.96275041e-21)
(-4.33310243e-20 4.82688091e-08 -8.23987665e-21)
(-5.68270967e-20 6.33017623e-08 -1.0806234e-20)
(-7.23083295e-20 8.0545368e-08 -1.3750028e-20)
(-9.02429098e-20 1.00521028e-07 -1.71602587e-20)
(-1.11102084e-19 1.23753547e-07 -2.11264957e-20)
(-1.35354594e-19 1.50764937e-07 -2.57378178e-20)
(-1.63456239e-19 1.82062765e-07 -3.10808234e-20)
(-1.95834175e-19 2.18122682e-07 -3.72366439e-20)
(-2.32865855e-19 2.59364943e-07 -4.42769348e-20)
(-2.74852789e-19 3.06125189e-07 -5.22588865e-20)
(-3.21989838e-19 3.58620249e-07 -6.12193862e-20)
(-3.74331305e-19 4.1691039e-07 -7.11685767e-20)
(-4.3175584e-19 4.80860247e-07 -8.20831918e-20)
(-4.93932831e-19 5.50101421e-07 -9.39001826e-20)
(-5.60293691e-19 6.24000542e-07 -1.06511278e-19)
(-6.30011874e-19 7.01637046e-07 -1.19759214e-19)
(-7.01995643e-19 7.8179516e-07 -1.33436386e-19)
(-7.74897289e-19 8.62974203e-07 -1.4728663e-19)
(-8.47141627e-19 9.43420332e-07 -1.61010669e-19)
(-9.16975126e-19 1.02118126e-06 -1.74275465e-19)
(-9.82535031e-19 1.09418318e-06 -1.86727357e-19)
(-1.04193553e-18 1.16032673e-06 -1.98008421e-19)
(-1.09336574e-18 1.21759597e-06 -2.07775058e-19)
(-1.13519249e-18 1.26417281e-06 -2.15717474e-19)
(-1.16606021e-18 1.29854815e-06 -2.2157859e-19)
(0 0 0)
(-2.04431781e-20 2.27733045e-08 -3.88753035e-21)
(-4.13012548e-20 4.60085667e-08 -7.85394191e-21)
(-6.33561049e-20 7.05764496e-08 -1.20478986e-20)
(-8.75611335e-20 9.75386506e-08 -1.66506768e-20)
(-1.14860859e-19 1.27947014e-07 -2.1841853e-20)
(-1.46203818e-19 1.62857873e-07 -2.78017525e-20)
(-1.82548694e-19 2.03338873e-07 -3.47126104e-20)
(-2.24862537e-19 2.50466957e-07 -4.27582251e-20)
(-2.74109915e-19 3.05316279e-07 -5.21218891e-20)
(-3.31231997e-19 3.68934885e-07 -6.29824035e-20)
(-3.97114767e-19 4.42309287e-07 -7.55080252e-20)
(-4.72546021e-19 5.26316568e-07 -8.98482855e-20)
(-5.58161519e-19 6.21664391e-07 -1.06123746e-19)
(-6.54381587e-19 7.28820414e-07 -1.24413949e-19)
(-7.6134075e-19 8.47933934e-07 -1.44744045e-19)
(-8.78814401e-19 9.78754278e-07 -1.67070874e-19)
(-1.00614807e-18 1.12055208e-06 -1.91269551e-19)
(-1.14219627e-18 1.27205128e-06 -2.17121891e-19)
(-1.28527902e-18 1.43138078e-06 -2.44308199e-19)
(-1.43316451e-18 1.59605523e-06 -2.72404051e-19)
(-1.58308585e-18 1.76299373e-06 -3.00883545e-19)
(-1.73179802e-18 1.92858336e-06 -3.29130198e-19)
(-1.87567833e-18 2.08879097e-06 -3.5645607e-19)
(-2.0108691e-18 2.23932206e-06 -3.82128892e-19)
(-2.13345664e-18 2.37581998e-06 -4.05406049e-19)
(-2.23967564e-18 2.49409335e-06 -4.25573327e-19)
(-2.3261237e-18 2.5903548e-06 -4.41985547e-19)
(-2.38996858e-18 2.66145159e-06 -4.54105814e-19)
(0 0 0)
(-3.13657286e-20 3.49404957e-08 -5.96457186e-21)
(-6.33658753e-20 7.05873445e-08 -1.20497565e-20)
(-9.72182605e-20 1.08296668e-07 -1.84871032e-20)
(-1.3441323e-19 1.49728109e-07 -2.55599743e-20)
(-1.76428979e-19 1.96527832e-07 -3.35494035e-20)
(-2.24753617e-19 2.50353057e-07 -4.27382827e-20)
(-2.80896446e-19 3.12884598e-07 -5.34134971e-20)
(-3.46386709e-19 3.85825438e-07 -6.58656739e-20)
(-4.22757958e-19 4.70883292e-07 -8.03861967e-20)
(-5.11516365e-19 5.69735269e-07 -9.72611631e-20)
(-6.14091542e-19 6.83973079e-07 -1.16762019e-19)
(-7.31769149e-19 8.15027946e-07 -1.3913273e-19)
(-8.65605556e-19 9.64075554e-07 -1.64573546e-19)
(-1.01632637e-18 1.13192307e-06 -1.9322171e-19)
(-1.18421267e-18 1.31888246e-06 -2.25129845e-19)
(-1.36898105e-18 1.52463704e-06 -2.60243183e-19)
(-1.56966639e-18 1.74811099e-06 -2.98377339e-19)
(-1.78451844e-18 1.98735439e-06 -3.39198747e-19)
(-2.01092563e-18 2.23945849e-06 -3.82210292e-19)
(-2.24538018e-18 2.50051709e-06 -4.2674482e-19)
(-2.48349815e-18 2.76564893e-06 -4.71969097e-19)
(-2.72010532e-18 3.02909349e-06 -5.16900262e-19)
(-2.9493949e-18 3.28438655e-06 -5.60435894e-19)
(-3.16515628e-18 3.52461484e-06 -6.01397499e-19)
(-3.36106524e-18 3.74273903e-06 -6.38585599e-19)
(-3.53101787e-18 3.93196526e-06 -6.70843003e-19)
(-3.66948242e-18 4.0861366e-06 -6.97121412e-19)
(-3.7718389e-18 4.20011089e-06 -7.16545617e-19)
(0 0 0)
(-4.33495853e-20 4.8289507e-08 -8.24340621e-21)
(-8.75856003e-20 9.756594e-08 -1.66553294e-20)
(-1.34430277e-19 1.49747128e-07 -2.5563216e-20)
(-1.85997766e-19 2.07187398e-07 -3.53690219e-20)
(-2.4439024e-19 2.72227789e-07 -4.6472395e-20)
(-3.11732668e-19 3.47234727e-07 -5.92772722e-20)
(-3.9019207e-19 4.34621421e-07 -7.41955232e-20)
(-4.81978716e-19 5.36849159e-07 -9.16471567e-20)
(-5.89326557e-19 6.56405447e-07 -1.12056573e-19)
(-7.14450193e-19 7.95756033e-07 -1.35844352e-19)
(-8.5947604e-19 9.57268187e-07 -1.63414137e-19)
(-1.02634614e-18 1.14310353e-06 -1.95134311e-19)
(-1.21669443e-18 1.35508025e-06 -2.31314462e-19)
(-1.43169759e-18 1.59450697e-06 -2.72177005e-19)
(-1.67190525e-18 1.86199383e-06 -3.17824939e-19)
(-1.93705835e-18 2.15725029e-06 -3.68207361e-19)
(-2.22590808e-18 2.47888377e-06 -4.23085163e-19)
(-2.53605225e-18 2.82421767e-06 -4.82000088e-19)
(-2.86380914e-18 3.18915122e-06 -5.44250969e-19)
(-3.20415103e-18 3.56808576e-06 -6.08881371e-19)
(-3.55071925e-18 3.9539417e-06 -6.74682731e-19)
(-3.895939e-18 4.33828664e-06 -7.4021646e-19)
(-4.23124523e-18 4.71158673e-06 -8.0385704e-19)
(-4.54741973e-18 5.06358205e-06 -8.63856168e-19)
(-4.83502686e-18 5.38377132e-06 -9.18425404e-19)
(-5.08492032e-18 5.66197581e-06 -9.65832154e-19)
(-5.28878131e-18 5.88893798e-06 -1.0045014e-18)
(-5.43963926e-18 6.0569007e-06 -1.033114e-18)
(0 0 0)
(-5.68567359e-20 6.33348213e-08 -1.08118701e-20)
(-1.14904154e-19 1.27995315e-07 -2.18500858e-20)
(-1.764692e-19 1.96572718e-07 -3.35570517e-20)
(-2.44415375e-19 2.72255848e-07 -4.64771745e-20)
(-3.21600336e-19 3.58227051e-07 -6.11536988e-20)
(-4.10928698e-19 4.57720922e-07 -7.81387236e-20)
(-5.1538355e-19 5.74059329e-07 -9.79991629e-20)
(-6.38033188e-19 7.10658844e-07 -1.21317989e-19)
(-7.8200909e-19 8.71006107e-07 -1.48689996e-19)
(-9.50451055e-19 1.05859663e-06 -1.80711316e-19)
(-1.14641569e-18 1.2768328e-06 -2.17961961e-19)
(-1.37274524e-18 1.5288777e-06 -2.60980825e-19)
(-1.63189552e-18 1.81746354e-06 -3.10232923e-19)
(-1.92572465e-18 2.14465636e-06 -3.66069208e-19)
(-2.25524847e-18 2.5115839e-06 -4.28680093e-19)
(-2.62037376e-18 2.9181387e-06 -4.98044826e-19)
(-3.01962658e-18 3.36267607e-06 -5.73880039e-19)
(-3.4498996e-18 3.8417331e-06 -6.55592e-19)
(-3.906248e-18 4.34980196e-06 -7.4223823e-19)
(-4.38176765e-18 4.87919478e-06 -8.32504861e-19)
(-4.86758999e-18 5.42003827e-06 -9.2470621e-19)
(-5.35302363e-18 5.96043175e-06 -1.01681223e-18)
(-5.82586293e-18 6.48679072e-06 -1.10650758e-18)
(-6.2728678e-18 6.98438075e-06 -1.19128287e-18)
(-6.68039783e-18 7.43802318e-06 -1.26855506e-18)
(-7.03516157e-18 7.8329285e-06 -1.33580909e-18)
(-7.32501996e-18 8.15559006e-06 -1.39074961e-18)
(-7.53976859e-18 8.39465402e-06 -1.43144827e-18)
(0 0 0)
(-7.23510464e-20 8.05930239e-08 -1.37581509e-20)
(-1.46270111e-19 1.6293185e-07 -2.78143585e-20)
(-2.24823463e-19 2.50431023e-07 -4.27515642e-20)
(-3.1179158e-19 3.47300507e-07 -5.92884742e-20)
(-4.10964513e-19 4.57760921e-07 -7.81455336e-20)
(-5.2622024e-19 5.86130673e-07 -1.00059783e-19)
(-6.61574681e-19 7.36881547e-07 -1.25794316e-19)
(-8.21198773e-19 9.14657589e-07 -1.56141462e-19)
(-1.00939663e-18 1.12425062e-06 -1.91918544e-19)
(-1.23053888e-18 1.37052585e-06 -2.33955113e-19)
(-1.48894515e-18 1.65829083e-06 -2.8307049e-19)
(-1.7887102e-18 1.99210177e-06 -3.40040598e-19)
(-2.1334703e-18 2.37600333e-06 -4.0555345e-19)
(-2.52611039e-18 2.81320265e-06 -4.80153413e-19)
(-2.96841807e-18 3.30568427e-06 -5.64175445e-19)
(-3.46069815e-18 3.85378147e-06 -6.57671966e-19)
(-4.00137095e-18 4.45572951e-06 -7.60336788e-19)
(-4.58658706e-18 5.10723749e-06 -8.71432406e-19)
(-5.20990169e-18 5.8011266e-06 -9.89728841e-19)
(-5.86205891e-18 6.5270907e-06 -1.11346359e-18)
(-6.5309394e-18 7.27163876e-06 -1.24033274e-18)
(-7.2017207e-18 8.0182737e-06 -1.36752256e-18)
(-7.857286e-18 8.74794757e-06 -1.49178797e-18)
(-8.47889377e-18 9.43980663e-06 -1.60958015e-18)
(-9.04708884e-18 1.00722049e-05 -1.71721937e-18)
(-9.54279865e-18 1.06239234e-05 -1.81110206e-18)
(-9.9485237e-18 1.10754944e-05 -1.88792505e-18)
(-1.02495057e-17 1.14105e-05 -1.94490496e-18)
(0 0 0)
(-9.03007293e-20 1.00585546e-07 -1.71712531e-20)
(-1.82642964e-19 2.03444089e-07 -3.47305357e-20)
(-2.810044e-19 3.13005121e-07 -5.3434024e-20)
(-3.90296452e-19 4.34737985e-07 -7.42153705e-20)
(-5.15469582e-19 5.74155419e-07 -9.80155206e-20)
(-6.61627157e-19 7.36940165e-07 -1.25804294e-19)
(-8.3410285e-19 9.29030984e-07 -1.58595011e-19)
(-1.03849555e-18 1.15666132e-06 -1.97451021e-19)
(-1.28065215e-18 1.42633989e-06 -2.43482274e-19)
(-1.56659028e-18 1.74476435e-06 -2.97830466e-19)
(-1.90235193e-18 2.11865811e-06 -3.61640992e-19)
(-2.2937781e-18 2.55451919e-06 -4.36019894e-19)
(-2.74619741e-18 3.05827348e-06 -5.21974454e-19)
(-3.26402615e-18 3.63482961e-06 -6.20337013e-19)
(-3.8502851e-18 4.28754132e-06 -7.31673098e-19)
(-4.50604905e-18 5.01759536e-06 -8.5617696e-19)
(-5.22985835e-18 5.82335726e-06 -9.93560213e-19)
(-6.01713747e-18 6.69972518e-06 -1.14294218e-18)
(-6.85968121e-18 7.63755921e-06 -1.30275358e-18)
(-7.74528353e-18 8.62326938e-06 -1.47066777e-18)
(-8.65759144e-18 9.63865392e-06 -1.64357504e-18)
(-9.5762636e-18 1.06610764e-05 -1.81761488e-18)
(-1.04774962e-17 1.16640511e-05 -1.98827773e-18)
(-1.13349456e-17 1.26182694e-05 -2.15058108e-18)
(-1.2121027e-17 1.34930447e-05 -2.29931592e-18)
(-1.2808513e-17 1.42580896e-05 -2.42934813e-18)
(-1.33722944e-17 1.48854743e-05 -2.53594928e-18)
(-1.3791124e-17 1.5351566e-05 -2.61512293e-18)
(0 0 0)
(-1.11176553e-19 1.23836661e-07 -2.11406557e-20)
(-2.24991159e-19 2.50610533e-07 -4.27826816e-20)
(-3.46545609e-19 3.86002848e-07 -6.58958868e-20)
(-4.82146808e-19 5.37036864e-07 -9.16791166e-20)
(-6.38191968e-19 7.10836173e-07 -1.21348177e-19)
(-8.21329264e-19 9.14803333e-07 -1.5616627e-19)
(-1.03857497e-18 1.15675003e-06 -1.97466119e-19)
(-1.29737864e-18 1.4449693e-06 -2.46662159e-19)
(-1.60561702e-18 1.78822843e-06 -3.05249138e-19)
(-1.97150957e-18 2.19567436e-06 -3.74785723e-19)
(-2.40344211e-18 2.6766371e-06 -4.56860611e-19)
(-2.90968119e-18 3.24031137e-06 -5.53037807e-19)
(-3.49796594e-18 3.89530217e-06 -6.64778618e-19)
(-4.17496926e-18 4.64902519e-06 -7.93338894e-19)
(-4.94563077e-18 5.50696491e-06 -9.39642087e-19)
(-5.81237827e-18 6.47180892e-06 -1.10413147e-18)
(-6.77427387e-18 7.54249891e-06 -1.28660857e-18)
(-7.82614383e-18 8.71326381e-06 -1.48606928e-18)
(-8.95777712e-18 9.97272951e-06 -1.70055391e-18)
(-1.01533021e-17 1.13032267e-05 -1.92703196e-18)
(-1.13908672e-17 1.2680437e-05 -2.16134554e-18)
(-1.26427549e-17 1.40735196e-05 -2.39823508e-18)
(-1.38760344e-17 1.54458388e-05 -2.63146725e-18)
(-1.50538164e-17 1.67563589e-05 -2.85407542e-18)
(-1.61370962e-17 1.79616937e-05 -3.05870926e-18)
(-1.70870791e-17 1.90186931e-05 -3.23807275e-18)
(-1.78677871e-17 1.98873417e-05 -3.38541202e-18)
(-1.84486684e-17 2.05336605e-05 -3.49500118e-18)
(0 0 0)
(-1.3544414e-19 1.50864903e-07 -2.57548435e-20)
(-2.74280599e-19 3.05506825e-07 -5.21543417e-20)
(-4.2298886e-19 4.71141072e-07 -8.04300976e-20)
(-5.89588387e-19 6.56697782e-07 -1.12106353e-19)
(-7.82278049e-19 8.71306422e-07 -1.48741129e-19)
(-1.00964801e-18 1.12453132e-06 -1.91966332e-19)
(-1.28085419e-18 1.42656551e-06 -2.43520681e-19)
(-1.60573757e-18 1.78836305e-06 -3.0527205e-19)
(-1.99483587e-18 2.22165146e-06 -3.79219266e-19)
(-2.45929808e-18 2.73883593e-06 -4.67475283e-19)
(-3.01068231e-18 3.35277372e-06 -5.7222809e-19)
(-3.66060219e-18 4.07638022e-06 -6.95672697e-19)
(-4.42020174e-18 4.92204427e-06 -8.39910502e-19)
(-5.29943946e-18 5.9008318e-06 -1.00681247e-18)
(-6.30617818e-18 7.02147372e-06 -1.19784571e-18)
(-7.44509514e-18 8.28915443e-06 -1.41386642e-18)
(-8.71645473e-18 9.70414803e-06 -1.65488771e-18)
(-1.01148187e-17 1.12603852e-05 -1.91983691e-18)
(-1.16278092e-17 1.29440792e-05 -2.20632464e-18)
(-1.32350833e-17 1.47325867e-05 -2.51045591e-18)
(-1.490771e-17 1.65937154e-05 -2.82671928e-18)
(-1.66081523e-17 1.84857055e-05 -3.14799202e-18)
(-1.82910398e-17 2.03580882e-05 -3.46569444e-18)
(-1.99048489e-17 2.21535544e-05 -3.77011423e-18)
(-2.13945032e-17 2.38108462e-05 -4.05090022e-18)
(-2.27047542e-17 2.5268516e-05 -4.29769792e-18)
(-2.37840471e-17 2.64692258e-05 -4.50086978e-18)
(-2.45884372e-17 2.73641028e-05 -4.65221965e-18)
(0 0 0)
(-1.63546126e-19 1.82163182e-07 -3.10979122e-20)
(-3.31451783e-19 3.69180258e-07 -6.30241886e-20)
(-5.11856819e-19 5.70115274e-07 -9.7325889e-20)
(-7.14855079e-19 7.96207975e-07 -1.35921325e-19)
(-9.50892375e-19 1.05908925e-06 -1.80795211e-19)
(-1.23098639e-18 1.37102538e-06 -2.34040179e-19)
(-1.56698876e-18 1.74520922e-06 -2.97906207e-19)
(-1.97181842e-18 2.19601923e-06 -3.7484442e-19)
(-2.45948157e-18 2.73904084e-06 -4.67510149e-19)
(-3.04499636e-18 3.3909818e-06 -5.7874764e-19)
(-3.74418322e-18 4.16943793e-06 -7.11548968e-19)
(-4.57323692e-18 5.09241643e-06 -8.68971254e-19)
(-5.54806658e-18 6.17760135e-06 -1.05400963e-18)
(-6.68335818e-18 7.44131097e-06 -1.26941753e-18)
(-7.99134892e-18 8.89713541e-06 -1.51747259e-18)
(-9.48031785e-18 1.05542593e-05 -1.79968958e-18)
(-1.11528413e-17 1.24155233e-05 -2.11649026e-18)
(-1.30039003e-17 1.44753216e-05 -2.46684753e-18)
(-1.50189936e-17 1.67175046e-05 -2.84793391e-18)
(-1.71724793e-17 1.9113537e-05 -3.25481728e-18)
(-1.94264336e-17 2.16212279e-05 -3.68025835e-18)
(-2.17303456e-17 2.41843922e-05 -4.11466927e-18)
(-2.40219561e-17 2.67337819e-05 -4.54628888e-18)
(-2.62294645e-17 2.91895399e-05 -4.96161345e-18)
(-2.82751719e-17 3.14652497e-05 -5.34609035e-18)
(-3.00803905e-17 3.34733959e-05 -5.68503906e-18)
(-3.15711875e-17 3.51317515e-05 -5.96471549e-18)
(-3.26842884e-17 3.63699436e-05 -6.1733946e-18)
(0 0 0)
(-1.95838402e-19 2.18127769e-07 -3.72374416e-20)
(-3.97383443e-19 4.42609273e-07 -7.55590995e-20)
(-6.14619816e-19 6.84562516e-07 -1.16862446e-19)
(-8.60100245e-19 9.57964725e-07 -1.63532796e-19)
(-1.14712755e-18 1.27762714e-06 -2.18097274e-19)
(-1.48972549e-18 1.65916156e-06 -2.8321881e-19)
(-1.90307373e-18 2.11946369e-06 -3.61778172e-19)
(-2.40405296e-18 2.67731904e-06 -4.56976686e-19)
(-3.01115944e-18 3.35330651e-06 -5.72318736e-19)
(-3.74446848e-18 4.16975654e-06 -7.11603146e-19)
(-4.62548094e-18 5.15057934e-06 -8.78891849e-19)
(-5.67660236e-18 6.32068478e-06 -1.07840825e-18)
(-6.92034546e-18 7.70509516e-06 -1.31438264e-18)
(-8.37811829e-18 9.32759818e-06 -1.59081879e-18)
(-1.00686004e-17 1.12089424e-05 -1.91118273e-18)
(-1.20056753e-17 1.33645403e-05 -2.27800864e-18)
(-1.41959836e-17 1.58017497e-05 -2.69243522e-18)
(-1.66361791e-17 1.85168247e-05 -3.1536901e-18)
(-1.93100804e-17 2.14917506e-05 -3.65856044e-18)
(-2.21860346e-17 2.4691312e-05 -4.20091119e-18)
(-2.5214914e-17 2.80608647e-05 -4.77133128e-18)
(-2.83292451e-17 3.1525365e-05 -5.35700045e-18)
(-3.14439766e-17 3.49902216e-05 -5.94186806e-18)
(-3.44592964e-17 3.83444263e-05 -6.50721376e-18)
(-3.72656875e-17 4.14661743e-05 -7.03261545e-18)
(-3.97510433e-17 4.42307783e-05 -7.49728169e-18)
(-4.18092207e-17 4.65201813e-05 -7.88162591e-18)
(-4.33489785e-17 4.82328989e-05 -8.16888755e-18)
(0 0 0)
(-2.32915916e-19 2.59421179e-07 -4.42864453e-20)
(-4.72912591e-19 5.26725782e-07 -8.99179681e-20)
(-7.32360804e-19 8.15688274e-07 -1.39245201e-19)
(-1.02708876e-18 1.14393236e-06 -1.95275468e-19)
(-1.3738614e-18 1.53012283e-06 -2.61192968e-19)
(-1.79009142e-18 1.99364233e-06 -3.40303101e-19)
(-2.29503357e-18 2.55591994e-06 -4.36258468e-19)
(-2.91077462e-18 3.24153177e-06 -5.53245541e-19)
(-3.66157012e-18 4.07746084e-06 -6.95856539e-19)
(-4.57399307e-18 5.09326094e-06 -8.69114823e-19)
(-5.67706504e-18 6.3212017e-06 -1.07849606e-18)
(-7.00151379e-18 7.79544215e-06 -1.32978243e-18)
(-8.57891326e-18 9.55107478e-06 -1.62889356e-18)
(-1.04401131e-17 1.16223805e-05 -1.98158199e-18)
(-1.26131428e-17 1.40405006e-05 -2.39302925e-18)
(-1.51203994e-17 1.6830313e-05 -2.86730771e-18)
(-1.7975279e-17 2.00066895e-05 -3.40674102e-18)
(-2.11782524e-17 2.35701351e-05 -4.01116643e-18)
(-2.47126163e-17 2.75020638e-05 -4.67714658e-18)
(-2.85403631e-17 3.17602044e-05 -5.39721827e-18)
(-3.25987763e-17 3.62748115e-05 -6.15929491e-18)
(-3.67985177e-17 4.09465339e-05 -6.94636563e-18)
(-4.10240272e-17 4.56468538e-05 -7.73663843e-18)
(-4.51369661e-17 5.0221913e-05 -8.50425059e-18)
(-4.89831381e-17 5.45002078e-05 -9.22060747e-18)
(-5.24027674e-17 5.83040211e-05 -9.85630549e-18)
(-5.52432611e-17 6.14636188e-05 -1.03834619e-17)
(-5.73728156e-17 6.38323873e-05 -1.07781475e-17)
(0 0 0)
(-2.75035103e-19 3.06328863e-07 -5.22935442e-20)
(-5.58586821e-19 6.2213929e-07 -1.06204597e-19)
(-8.66199e-19 9.64738272e-07 -1.64686354e-19)
(-1.21760746e-18 1.35609938e-06 -2.31488004e-19)
(-1.63337028e-18 1.81910872e-06 -3.10513216e-19)
(-2.13512242e-18 2.37784653e-06 -4.05867431e-19)
(-2.74776941e-18 3.06002794e-06 -5.22273136e-19)
(-3.49978796e-18 3.89733543e-06 -6.65124688e-19)
(-4.42202424e-18 4.92407845e-06 -8.40256564e-19)
(-5.54962125e-18 6.17933745e-06 -1.0543047e-18)
(-6.92160329e-18 7.70650038e-06 -1.31462126e-18)
(-8.57964456e-18 9.5518923e-06 -1.6290322e-18)
(-1.05676534e-17 1.17643154e-05 -2.00574806e-18)
(-1.29295559e-17 1.43925871e-05 -2.45293118e-18)
(-1.57067768e-17 1.74827431e-05 -2.97820514e-18)
(-1.89343584e-17 2.10737268e-05 -3.58790821e-18)
(-2.26364801e-17 2.51924112e-05 -4.28623888e-18)
(-2.68209307e-17 2.9847454e-05 -5.07421515e-18)
(-3.14728391e-17 3.5022325e-05 -5.94851283e-18)
(-3.65483024e-17 4.06682157e-05 -6.90031183e-18)
(-4.19687463e-17 4.66977605e-05 -7.91431376e-18)
(-4.76171809e-17 5.29808639e-05 -8.96814998e-18)
(-5.33376504e-17 5.93440811e-05 -1.00324128e-17)
(-5.89391447e-17 6.55749635e-05 -1.10715218e-17)
(-6.42048871e-17 7.14323868e-05 -1.20455539e-17)
(-6.89070937e-17 7.66629695e-05 -1.29130098e-17)
(-7.28260503e-17 8.10222969e-05 -1.36342622e-17)
(-7.57709558e-17 8.42981107e-05 -1.41752148e-17)
(0 0 0)
(-3.22175242e-19 3.58827536e-07 -6.12546328e-20)
(-6.54776218e-19 7.29261494e-07 -1.24488969e-19)
(-1.01695882e-18 1.13262974e-06 -1.93341933e-19)
(-1.43270445e-18 1.59563135e-06 -2.72368387e-19)
(-1.92714463e-18 2.14624157e-06 -3.66339092e-19)
(-2.52764031e-18 2.81491112e-06 -4.80444157e-19)
(-3.26584534e-18 3.63686107e-06 -6.20682623e-19)
(-4.17718914e-18 4.65150386e-06 -7.93760518e-19)
(-5.30182626e-18 5.90349743e-06 -1.00726557e-18)
(-6.68623352e-18 7.44452131e-06 -1.26996301e-18)
(-8.38083684e-18 9.33063446e-06 -1.59133426e-18)
(-1.04420732e-17 1.16245717e-05 -1.9819533e-18)
(-1.29306967e-17 1.43938635e-05 -2.45314708e-18)
(-1.59083627e-17 1.77070408e-05 -3.01632452e-18)
(-1.94355411e-17 2.16313233e-05 -3.68255643e-18)
(-2.3565596e-17 2.6226042e-05 -4.46143005e-18)
(-2.83393707e-17 3.15366215e-05 -5.36000709e-18)
(-3.37774909e-17 3.75860221e-05 -6.38136913e-18)
(-3.98711846e-17 4.43645249e-05 -7.52291582e-18)
(-4.65726286e-17 5.18189873e-05 -8.77462404e-18)
(-5.37858018e-17 5.98426573e-05 -1.01174678e-17)
(-6.13596434e-17 6.82675509e-05 -1.15223425e-17)
(-6.90854863e-17 7.68615883e-05 -1.29498482e-17)
(-7.67009028e-17 8.53328659e-05 -1.43512852e-17)
(-8.39017838e-17 9.33430925e-05 -1.56711202e-17)
(-9.03633366e-17 0.00010053095 -1.68509435e-17)
(-9.57686232e-17 0.000106543848 -1.78345756e-17)
(-9.98407215e-17 0.000111073705 -1.85735793e-17)
(0 0 0)
(-3.74505316e-19 4.17105192e-07 -7.12016576e-20)
(-7.61702668e-19 8.48338999e-07 -1.44812846e-19)
(-1.18479119e-18 1.31952976e-06 -2.25239818e-19)
(-1.67275584e-18 1.86294518e-06 -3.17986616e-19)
(-2.25640109e-18 2.51287279e-06 -4.28899156e-19)
(-2.96986782e-18 3.30730544e-06 -5.64450933e-19)
(-3.85222712e-18 4.28971225e-06 -7.32042027e-19)
(-4.94788006e-18 5.50947998e-06 -9.40069275e-19)
(-6.30905822e-18 7.0246932e-06 -1.19839235e-18)
(-7.99491941e-18 8.90112591e-06 -1.51814995e-18)
(-1.00722135e-17 1.12129825e-05 -1.91186749e-18)
(-1.26171799e-17 1.40450131e-05 -2.39379328e-18)
(-1.57099012e-17 1.74862383e-05 -2.9787958e-18)
(-1.94368184e-17 2.16327571e-05 -3.68279716e-18)
(-2.38858411e-17 2.65823193e-05 -4.52180065e-18)
(-2.91358839e-17 3.2422695e-05 -5.50986065e-18)
(-3.52528676e-17 3.92272319e-05 -6.65828411e-18)
(-4.22787393e-17 4.70426416e-05 -7.97354106e-18)
(-5.02180194e-17 5.58740264e-05 -9.45476268e-18)
(-5.90235834e-17 6.56690492e-05 -1.10911852e-17)
(-6.85820523e-17 7.63016656e-05 -1.28596458e-17)
(-7.87019115e-17 8.75588931e-05 -1.47227373e-17)
(-8.91070779e-17 9.91336447e-05 -1.66281176e-17)
(-9.9439389e-17 0.000110627496 -1.85095463e-17)
(-1.09273517e-16 0.00012156728 -2.02901383e-17)
(-1.1814638e-16 0.00013143781 -2.18879916e-17)
(-1.25599792e-16 0.000139729344 -2.322374e-17)
(-1.31230508e-16 0.00014599325 -2.42288765e-17)
(0 0 0)
(-4.31913719e-19 4.81037333e-07 -8.21132057e-20)
(-8.7913917e-19 9.79118495e-07 -1.67132613e-19)
(-1.36949368e-18 1.52521182e-06 -2.60340628e-19)
(-1.93779273e-18 2.15807354e-06 -3.68346947e-19)
(-2.62136556e-18 2.91925046e-06 -4.98233317e-19)
(-3.46199291e-18 3.85523288e-06 -6.57917986e-19)
(-4.50774791e-18 5.01949963e-06 -8.56499677e-19)
(-5.81457721e-18 6.47427351e-06 -1.10454902e-18)
(-7.4481534e-18 8.29257982e-06 -1.41444686e-18)
(-9.48377654e-18 1.05581351e-05 -1.80034571e-18)
(-1.2009915e-17 1.33692898e-05 -2.27881188e-18)
(-1.51251835e-17 1.68356718e-05 -2.86821328e-18)
(-1.89379411e-17 2.10777499e-05 -3.58858457e-18)
(-2.3568537e-17 2.62293467e-05 -4.46198223e-18)
(-2.91388106e-17 3.24259719e-05 -5.51040894e-18)
(-3.57638119e-17 3.97956226e-05 -6.75414833e-18)
(-4.35467025e-17 4.84531129e-05 -8.21070709e-18)
(-5.25636353e-17 5.84832474e-05 -9.89190378e-18)
(-6.28438092e-17 6.99186175e-05 -1.18001323e-17)
(-7.43498468e-17 8.27177518e-05 -1.39248428e-17)
(-8.69543985e-17 9.67390694e-05 -1.6238549e-17)
(-1.00420535e-16 0.000111719052 -1.86938391e-17)
(-1.14388379e-16 0.000127257371 -2.12218591e-17)
(-1.28373519e-16 0.000142815119 -2.37331875e-17)
(-1.41783717e-16 0.000157733417 -2.61220106e-17)
(-1.53959026e-16 0.000171278049 -2.82740565e-17)
(-1.6423528e-16 0.000182710103 -3.00777485e-17)
(-1.72022645e-16 0.000191373367 -3.14367983e-17)
(0 0 0)
(-4.94073887e-19 5.50260092e-07 -9.39269981e-20)
(-1.00643653e-18 1.12087654e-06 -1.91324387e-19)
(-1.57011832e-18 1.74861932e-06 -2.98463244e-19)
(-2.22655035e-18 2.47960624e-06 -4.23207237e-19)