/*--------------------------------*- C++ -*----------------------------------*\
| =========                 |                                                 |
| \\      /  F ield         | foam-extend: Open Source CFD                    |
|  \\    /   O peration     | Version:     4.1                                |
|   \\  /    A nd           | Web:         http://www.foam-extend.org         |
|    \\/     M anipulation  |                                                 |
\*---------------------------------------------------------------------------*/
FoamFile
{
    version     2.0;
    format      ascii;
    class       volScalarField;
    location    "0.3";
    object      rAU;
}
// * * * * * * * * * * * * * * * * * * * * * * * * * * * * * * * * * * * * * //

dimensions      [0 0 1 0 0 0 0];

internalField   nonuniform List<scalar> 
35840
(
0.000714285777
0.000836637582
0.000924548481
0.000999612665
0.00105386393
0.00109046282
0.00111504523
0.00113178534
0.00114331601
0.00115143663
0.00115735571
0.00116182691
0.00116531068
0.00116809452
0.00117036256
0.00117223631
0.00117379944
0.00117504299
0.00117609252
0.001176995
0.00117777639
0.00117845896
0.00117906212
0.00117960292
0.0011800964
0.00118055579
0.00118099259
0.00118141668
0.000739083767
0.000819497539
0.000880891962
0.000951172565
0.00101612338
0.00106944489
0.00111046749
0.00114131602
0.0011644252
0.00118185367
0.00119521255
0.00120566267
0.00121399928
0.00122076473
0.00122633334
0.0012309675
0.00123485546
0.00123805943
0.00124077465
0.00124299329
0.00124485508
0.00124649734
0.00124796095
0.00124928193
0.00125049207
0.00125161934
0.0012526881
0.00125371931
0.000753175644
0.000833322841
0.000878398398
0.000929314342
0.000978234738
0.00102100094
0.00105596514
0.00108369694
0.00110556752
0.00112290972
0.00113681962
0.00114812974
0.00115744316
0.00116519452
0.00117170154
0.00117720015
0.00118186886
0.00118584583
0.00118924068
0.00119204603
0.00119419942
0.00119609203
0.00119779848
0.00119935605
0.00120079796
0.00120215352
0.00120344826
0.00120470395
0.000760308972
0.000850112838
0.00089562344
0.000941325097
0.00098225782
0.00101676136
0.0010445781
0.00106663393
0.00108423288
0.00109850305
0.00111028441
0.0011201661
0.00112855126
0.00113572082
0.00114187933
0.00114718252
0.00115175345
0.00115569238
0.00115908307
0.00116199697
0.00116402724
0.00116580191
0.00116742592
0.00116893166
0.00117034858
0.00117170297
0.00117301768
0.00117431198
0.0007633825
0.000860199265
0.000909774911
0.000956401786
0.000995498957
0.00102638617
0.00104993746
0.00106782269
0.00108169927
0.00109282578
0.00110204615
0.00110988815
0.00111667012
0.00112258662
0.00112776453
0.00113229471
0.00113624849
0.00113968606
0.00114266054
0.00114512895
0.00114668414
0.00114808254
0.00114938803
0.00115062631
0.00115182152
0.00115299557
0.00115416749
0.00115535295
0.000765074032
0.000866246529
0.000919348301
0.000968015663
0.00100751142
0.00103741601
0.00105912348
0.00107479412
0.00108640556
0.00109539667
0.00110269859
0.00110886686
0.00111421406
0.00111891214
0.00112305823
0.00112671216
0.00112991632
0.00113270549
0.00113511131
0.00113675112
0.00113770448
0.00113860381
0.0011394694
0.00114032218
0.00114118245
0.00114206889
0.00114299758
0.00114398125
0.000766121369
0.000870081137
0.000925796133
0.000976359803
0.00101677938
0.00104669228
0.00106773841
0.00108236902
0.00109278071
0.00110054679
0.00110667286
0.00111175096
0.00111610775
0.00111991643
0.00112326798
0.00112621208
0.00112877932
0.00113099244
0.001132816
0.0011334665
0.00113387297
0.00113427315
0.00113468609
0.00113513177
0.00113562982
0.00113619829
0.00113685244
0.00113760376
0.000766816548
0.00087266405
0.000930309491
0.000982463298
0.00102385535
0.00105409809
0.0010749691
0.00108911379
0.00109888754
0.0011059638
0.00111140321
0.00111582484
0.00111956675
0.0011228053
0.0011256301
0.00112808684
0.00113020067
0.00113198826
0.00113294904
0.00113289736
0.00113284692
0.00113281773
0.00113283165
0.00113291129
0.00113307881
0.00113335441
0.00113375502
0.00113429291
0.000767309943
0.000874503731
0.000933598869
0.000987055333
0.00102935332
0.00106003749
0.00108095798
0.0010948927
0.00110431719
0.0011109864
0.00111600782
0.00112002376
0.00112338186
0.00112626088
0.0011287491
0.00113088891
0.00113270111
0.00113398939
0.00113390433
0.00113348601
0.00113307628
0.00113270044
0.00113238554
0.00113215939
0.00113204912
0.00113207953
0.00113227135
0.00113263953
0.000767677915
0.00087587306
0.000936080126
0.000990600884
0.00103371179
0.00106487329
0.00108596456
0.00109985061
0.00110909629
0.00111552327
0.00112028078
0.00112403381
0.00112714047
0.00112978296
0.00113204906
0.00113397837
0.0011355876
0.00113575341
0.00113507156
0.00113436661
0.00113366773
0.00113300653
0.00113241673
0.00113193305
0.00113158964
0.00113141802
0.00113144476
0.00113168921
0.000767962736
0.00087692939
0.000938009259
0.000993404778
0.00103723314
0.00106887079
0.00109019994
0.00110414045
0.00111332177
0.00111961832
0.00112421527
0.0011277991
0.00113073927
0.00113322285
0.00113533841
0.00113712376
0.00113777848
0.00113699443
0.00113608314
0.00113513367
0.00113418152
0.00113326536
0.0011324268
0.00113170921
0.00113115583
0.00113080721
0.00113069807
0.00113085412
0.000768189833
0.000877768501
0.000939548647
0.000995670068
0.00104012731
0.00107222093
0.00109382232
0.00110788442
0.00111708242
0.0011233313
0.00112784601
0.00113133226
0.00113417069
0.00113655399
0.00113857252
0.00113955281
0.00113896321
0.0011379395
0.00113681817
0.00113563785
0.00113444053
0.00113327272
0.00113218528
0.00113123224
0.00113046854
0.00112994672
0.00112971269
0.00112980122
0.000768375177
0.000878450905
0.000940803989
0.000997534587
0.00104254276
0.0010750637
0.00109695158
0.00111117825
0.00112045091
0.00112671534
0.00113121053
0.00113465869
0.00113745076
0.00113978509
0.00114113911
0.0011408263
0.00113979849
0.00113859878
0.00113726897
0.0011358527
0.00113439854
0.00113296152
0.00113160334
0.00113039118
0.00112939506
0.00112868353
0.00112831803
0.00112834624
0.000768529171
0.000879016205
0.000941846001
0.00099909371
0.00104458599
0.00107750298
0.00109967952
0.00111409741
0.00112348623
0.00112981507
0.00113434211
0.00113780345
0.00114059912
0.00114240469
0.00114246575
0.00114156354
0.00114040003
0.00113902226
0.00113747461
0.00113580477
0.00113406753
0.00113232702
0.00113065743
0.00112914211
0.00112787052
0.00112693278
0.001126412
0.00112637464
0.000768658813
0.000879491109
0.00094272313
0.00100041448
0.00104633415
0.00107961629
0.00110207661
0.00111670142
0.00112623603
0.0011326673
0.00113726881
0.00114078829
0.00114318509
0.00114374928
0.00114312798
0.00114213816
0.00114083843
0.00113927526
0.00113749355
0.00113554343
0.00113348497
0.00113139149
0.00112935131
0.0011274674
0.00112585424
0.00112463121
0.00112391198
0.00112379065
0.000768768933
0.000879894073
0.00094346922
0.00100154466
0.00104784349
0.00108146156
0.00110419677
0.00111903676
0.00112873813
0.00113530153
0.00114001313
0.00114325405
0.00114450784
0.00114435544
0.00114370011
0.00114262637
0.00114118898
0.00113943099
0.00113739504
0.00113513113
0.0011327027
0.00113019154
0.00112770124
0.00112535818
0.00112330896
0.0011217126
0.00112072647
0.00112048596
0.000768862934
0.000880238112
0.000944108307
0.00100251861
0.00104915521
0.00108308198
0.00110608078
0.00112113898
0.0011310215
0.00113774008
0.00114227967
0.00114451313
0.00114506878
0.00114493692
0.00114425647
0.00114310529
0.0011415311
0.00113957009
0.00113725879
0.00113464318
0.00113178664
0.00112877721
0.00112573379
0.00112280989
0.00112019274
0.0011180952
0.00111673761
0.00111629953
0.000768943266
0.000880532564
0.000944657683
0.00100336126
0.00105029947
0.00108450944
0.00110775896
0.00112303435
0.00113310707
0.00113974283
0.00114343528
0.00114503177
0.00114565845
0.001145561
0.00114486994
0.00114365374
0.00114194973
0.00113978277
0.0011371781
0.001134172
0.00113082206
0.00112721778
0.00112349121
0.00111982549
0.0011164582
0.00111367493
0.00111177548
0.00111103665
0.000769011721
0.000880784238
0.000945129925
0.00100409075
0.00105129826
0.00108576715
0.0011092531
0.00112474119
0.00113480043
0.00114076104
0.0011439084
0.00114561754
0.00114633279
0.00114629099
0.00114561241
0.00114435342
0.00114253701
0.0011401716
0.00113726447
0.00113383396
0.00112992267
0.00112561277
0.00112104299
0.00111642544
0.00111205752
0.00110832177
0.00110560532
0.00110443188
0.000769069643
0.000880998193
0.000945534293
0.00100472032
0.0010521675
0.00108687165
0.00111057814
0.00112610077
0.00113565589
0.00114118182
0.00114447134
0.0011463125
0.0011471416
0.00114718608
0.00114655459
0.00114528883
0.00114339349
0.00114085457
0.00113765294
0.00113377787
0.00112924318
0.00112410841
0.00111850507
0.00111266646
0.00110695563
0.00110182951
0.00109796069
0.00109609356
0.000769118074
0.000881178287
0.000945877717
0.00100525972
0.00105291862
0.00108783433
0.00111160133
0.00112677845
0.00113601661
0.00114170057
0.0011451513
0.00114715059
0.0011481274
0.00114829983
0.00114776425
0.00114654589
0.00114462752
0.00114196636
0.00113850685
0.00113419462
0.00112899513
0.00112292075
0.00111606923
0.00110867351
0.00110112788
0.00109404524
0.00108845347
0.00108545457
0.00076915786
0.000881327578
0.000946165527
0.0010057162
0.0010535598
0.0010885396
0.00111209773
0.0011270728
0.00113647159
0.00114233058
0.00114596648
0.0011481564
0.00114932338
0.00114967736
0.00114930295
0.00114820843
0.0011463521
0.00114365685
0.00114002023
0.00113532649
0.00112946583
0.00112236663
0.00111404711
0.00110469198
0.00109461173
0.00108479085
0.00107656394
0.00107167164
0.000769189734
0.000881448623
0.000946402009
0.00100609542
0.0010539854
0.00108886304
0.00111232276
0.00112744951
0.00113702274
0.00114307632
0.00114692486
0.00114934308
0.00115075045
0.00115135122
0.00115122061
0.00115035158
0.00114867812
0.0011460856
0.00114241586
0.00113747325
0.00113103982
0.00112290759
0.00111294114
0.00110105186
0.00108768958
0.00107391187
0.00106154532
0.00105337004
0.000769212955
0.000881543689
0.000946568172
0.00100629939
0.00105415614
0.00108902055
0.0011126138
0.00112790237
0.00113766413
0.0011439326
0.0011480228
0.00115070993
0.00115241338
0.00115333579
0.00115354764
0.00115303158
0.00115170176
0.00114940834
0.00114593405
0.00114098914
0.00113421329
0.00112519652
0.00111344857
0.00109860311
0.00108097439
0.00106146846
0.00104234123
0.00102810302
0.000769217388
0.000881575997
0.000946625199
0.0010063516
0.00105425365
0.00108922673
0.00111296006
0.00112841901
0.00113838182
0.00114488396
0.00114924359
0.00115223988
0.0011542966
0.00115562053
0.00115628484
0.00115627111
0.00115548461
0.00115375172
0.00115080487
0.00114625907
0.00113958695
0.00113010686
0.00111662585
0.00109864814
0.00107566056
0.00104801761
0.00101784947
0.00099249628
0.000769210252
0.000881563717
0.000946629127
0.0010064027
0.00105438436
0.00108946938
0.00111334641
0.00112898114
0.00113915394
0.0011459044
0.00115055664
0.00115389754
0.00115636039
0.00115816325
0.00115939199
0.00116004104
0.00116002573
0.00115917349
0.00115719625
0.00115364325
0.0011478334
0.00113848693
0.00112418293
0.00110328335
0.00107383018
0.00103462537
0.00098718931
0.000945551972
0.000769207352
0.000881562698
0.000946651086
0.0010064749
0.00105453698
0.00108973358
0.00111375389
0.00112956514
0.00113995126
0.00114695787
0.00115191757
0.00115562851
0.00115853865
0.00116088498
0.00116277755
0.00116424105
0.00116522738
0.001165605
0.00116512461
0.00116335397
0.00115951786
0.00115183179
0.00113867284
0.00111684485
0.00108170952
0.00102797405
0.000955272833
0.000896855578
0.00076920775
0.000881571067
0.000946685211
0.00100655902
0.00105469868
0.00109000227
0.00111416051
0.00113014307
0.00114073852
0.00114799983
0.00115326995
0.00115736102
0.00116073987
0.00116366905
0.00116629343
0.00116868542
0.00117086247
0.00117278283
0.00117431872
0.00117519798
0.00117455743
0.00117106042
0.00116287739
0.00114609838
0.00111373317
0.00105508946
0.000963605463
0.000883118177
0.000739802572
0.000821720671
0.000884286408
0.000955195797
0.00102016122
0.0010730393
0.001113372
0.00114346931
0.0011658835
0.0011827241
0.00119561211
0.00120569945
0.00121376597
0.00122033785
0.00122577499
0.00123032771
0.00123417462
0.00123744764
0.00124024764
0.00124265447
0.00124473337
0.00124653918
0.00124811896
0.00124951379
0.00125075996
0.00125188969
0.00125293161
0.00125391106
0.000752948197
0.000758100521
0.000763153325
0.000796314748
0.000843042212
0.000894036396
0.000942832613
0.000986193119
0.0010231247
0.00105381575
0.0010790479
0.00109978846
0.00111693511
0.00113122641
0.00114324069
0.00115342128
0.00116210618
0.0011695552
0.00117597161
0.00118151813
0.00118632824
0.0011905141
0.00119417201
0.00119738627
0.00120023186
0.00120277607
0.00120507971
0.00120719771
0.000770705572
0.000770884922
0.000754230054
0.000761611169
0.000782823021
0.000811819798
0.000843664782
0.000875072034
0.000904265836
0.000930423085
0.000953331973
0.000973156144
0.000990229827
0.00100492669
0.00101759886
0.00102855415
0.00103805129
0.00104630423
0.00105348967
0.0010597548
0.001065224
0.00107000417
0.00107418884
0.00107786127
0.00108109672
0.00108396404
0.00108652669
0.00108884341
0.000779770349
0.000790744184
0.000774250496
0.00077609453
0.000787816205
0.000805265892
0.00082533327
0.000845959849
0.0008659856
0.000884761551
0.000901958452
0.000917476741
0.000931356922
0.000943707547
0.000954663663
0.000964365051
0.000972944856
0.000980524642
0.000987213352
0.000993108163
0.000998296069
0.00100285564
0.00100685864
0.00101037149
0.00101345642
0.00101617231
0.00101857529
0.00102071896
0.000783419711
0.000802128242
0.000790102274
0.00079402877
0.000805254056
0.000819677882
0.000834857318
0.000849622145
0.000863571572
0.000876581701
0.000888615863
0.000899682864
0.000909815028
0.000919053253
0.000927442139
0.00093502898
0.000941862695
0.000947992673
0.000953467982
0.00095833696
0.00096264704
0.000966444795
0.000969776108
0.000972686458
0.000975221188
0.000977425691
0.000979345458
0.00098102595
0.000785372555
0.000808598377
0.000800133923
0.000806889302
0.000819981041
0.000834971229
0.000849341949
0.000862156382
0.000873384345
0.000883274303
0.00089209194
0.00090005182
0.000907303734
0.000913941124
0.000920019115
0.000925571065
0.000930619653
0.000935183369
0.000939280093
0.000942928929
0.000946151033
0.000948969953
0.000951411796
0.000953505322
0.000955281973
0.00095677582
0.000958023377
0.000959063239
0.000786563584
0.000812607395
0.000806644371
0.000815652237
0.000830618636
0.000846905782
0.000861842359
0.000874489028
0.000884928779
0.000893574346
0.00090086083
0.000907147688
0.000912692728
0.000917661654
0.000922152845
0.000926221537
0.0009298977
0.000933197855
0.000936132481
0.000938710424
0.000940941466
0.000942837748
0.000944414668
0.000945691408
0.000946691241
0.000947441639
0.000947974133
0.000948323923
0.000787346423
0.000815278003
0.000811110197
0.000821854682
0.000838376465
0.000855904018
0.000871657958
0.000884674509
0.000895081709
0.000903369361
0.000910057863
0.000915585856
0.000920276346
0.000924344325
0.000927922965
0.00093109035
0.000933890036
0.000936345327
0.000938468696
0.000940267789
0.000941749207
0.000942920905
0.000943793803
0.000944382903
0.000944708039
0.000944794311
0.000944672161
0.000944377034
0.000787900411
0.000817168905
0.000814325274
0.000826425061
0.000844224641
0.000862838363
0.000879397708
0.000892911975
0.000903535784
0.000911809882
0.000918310288
0.000923525981
0.000927820689
0.000931439994
0.000934538857
0.000937210062
0.000939506363
0.000941456101
0.000943073712
0.000944366681
0.000945340026
0.000945999387
0.000946353212
0.000946414394
0.000946027544
0.000945354689
0.000944676791
0.000944027566
0.000788313259
0.000818572496
0.000816733094
0.000829905684
0.000848763134
0.000868322142
0.000885633282
0.000899672362
0.000910605697
0.000919009743
0.000925502771
0.000930612642
0.000934734248
0.000938135967
0.000940988287
0.000943393774
0.000945410597
0.000947069241
0.000948383983
0.000949360501
0.00095000102
0.000950307969
0.000949493188
0.000948532296
0.000947320976
0.000946034497
0.000944961373
0.000944136373
0.000788632955
0.00081965461
0.000818597882
0.00083263287
0.000852372919
0.000872754971
0.000890757613
0.000905319336
0.000916606054
0.000925216634
0.000931800606
0.000936916712
0.000940985623
0.000944294979
0.000947028401
0.000949296446
0.000951161163
0.00095265379
0.000953786987
0.000954563109
0.000954121795
0.000953122867
0.000951163979
0.000949252182
0.000947478199
0.000945896038
0.000944556461
0.000943504185
0.000788888224
0.000820514839
0.000820083325
0.000834822645
0.000855305316
0.000876405263
0.000895039137
0.000910108019
0.000921769652
0.000930634975
0.000937375326
0.000942573142
0.000946670061
0.000949970081
0.000952668314
0.000954882336
0.000956677419
0.000958084875
0.000958789926
0.00095802089
0.000956131882
0.000953825235
0.000951529052
0.000949309305
0.000947233653
0.000945369703
0.000943782056
0.00094252844
0.000789096951
0.000821215357
0.000821293994
0.000836617483
0.000857730968
0.000879459458
0.000898667549
0.000914221195
0.000926265837
0.000935417388
0.000942361696
0.000947698831
0.00095188703
0.000955243814
0.000957974041
0.000960201295
0.000961993392
0.00096241913
0.000961483799
0.000959125636
0.000956609681
0.000954006934
0.000951391567
0.000948842246
0.000946441717
0.000944274579
0.000942423339
0.000940963031
0.000789270697
0.000821796464
0.000822298795
0.000838113662
0.00085976825
0.000882049912
0.000901780099
0.000917793082
0.000930220377
0.000939678424
0.000946862333
0.000952385131
0.000956718044
0.000960189549
0.000963012612
0.000965315778
0.000965662381
0.000964387121
0.000962075468
0.000959480635
0.000956678442
0.00095374732
0.00095077212
0.00094784589
0.000945069539
0.00094254913
0.000940390675
0.000938692645
0.000789417201
0.000822285136
0.000823144368
0.000839377621
0.000861500659
0.000884271938
0.000904477439
0.000920923628
0.000933728047
0.000943505088
0.000950955654
0.000956702385
0.000961226684
0.00096486603
0.000967649168
0.00096835932
0.000966996096
0.000964914054
0.000962405869
0.000959550916
0.000956427841
0.000953121357
0.000949727053
0.000946354056
0.000943125124
0.000940173593
0.00093763668
0.000935645095
0.000789541777
0.000822699908
0.000823863011
0.000840456036
0.000862987874
0.000886194835
0.000906833902
0.00092368762
0.000936860404
0.000946963405
0.000954701246
0.000960703868
0.000965461029
0.00096882543
0.00097012026
0.00096916971
0.000967530792
0.000965308871
0.000962588396
0.000959445746
0.000955959446
0.000952218352
0.00094832807
0.00094441519
0.000940628503
0.000937136054
0.000934116872
0.000931746686
0.000789648163
0.000823053806
0.000824477529
0.000841382184
0.000864272967
0.000887869256
0.000908904435
0.000926140771
0.000939670933
0.000950102631
0.000958143067
0.000964428209
0.00096876031
0.000970785091
0.000970715408
0.000969760006
0.000968052016
0.000965687259
0.000962741292
0.000959283038
0.000955386547
0.000951141085
0.000946660063
0.000942087985
0.00093760402
0.000933420209
0.000929771981
0.000926886088
0.000789739042
0.000823356167
0.00082500429
0.000842180065
0.000865387227
0.000889332253
0.000910729407
0.000928324007
0.000942198671
0.000952958016
0.000961311488
0.000967098815
0.00097027342
0.000971386864
0.000971380506
0.000970434827
0.000968670065
0.000966168416
0.000962991209
0.000959193939
0.000954839847
0.00095001235
0.00094482785
0.000939447107
0.000934083322
0.000929003604
0.000924511517
0.000920926014
0.000789816383
0.000823613819
0.000825455227
0.00084286717
0.000866353465
0.000890610817
0.00091233808
0.000930266636
0.000944470782
0.000955552796
0.000963398451
0.000968229032
0.00097088018
0.000972119202
0.00097220109
0.000971292069
0.000969496344
0.000966877841
0.000963477427
0.000959329279
0.000954476329
0.000948986223
0.000942969159
0.000936596317
0.000930115986
0.000923862324
0.000918210816
0.000913679549
0.00078988167
0.000823831875
0.000825839196
0.000843456379
0.000867188348
0.000891724459
0.000913751228
0.000931988703
0.000946504563
0.000957112848
0.000964205668
0.000968824395
0.000971650955
0.000973047566
0.000973255982
0.000972426542
0.000970644365
0.000967949914
0.000964356421
0.00095986683
0.000954490515
0.000948263786
0.00094127439
0.000933690367
0.000925789656
0.000917948291
0.000910744797
0.000904877773
0.000789936064
0.000824014287
0.000826162935
0.000843957333
0.00086790413
0.000892687177
0.000914983117
0.000933415543
0.000947603891
0.000957651723
0.000964765324
0.000969592381
0.000972629162
0.000974227464
0.000974615983
0.000973928465
0.000972228388
0.000969528087
0.000965805071
0.000961018536
0.000955127312
0.000948113593
0.000940014946
0.000930969145
0.000921244662
0.000911299094
0.00090194658
0.000894148334
0.000789980519
0.000824164259
0.000826431769
0.000844377459
0.000868509974
0.000893508957
0.000915892987
0.00093412749
0.000947923966
0.000958150552
0.000965486532
0.000970555123
0.000973845879
0.000975702042
0.000976340751
0.000975879727
0.000974359784
0.000971761805
0.000968020194
0.000963036257
0.000956696431
0.000948896841
0.000939582298
0.000928809398
0.000916732631
0.000904012711
0.000891632853
0.000880958829
0.000790015869
0.000824284538
0.00082665015
0.000844722778
0.000869012971
0.000894019033
0.000916296082
0.000934362052
0.000948342055
0.000958786973
0.000966373424
0.000971721654
0.000975317422
0.000977498508
0.000978473666
0.000978347408
0.000977139776
0.000974799657
0.000971213519
0.000966212651
0.000959586259
0.000951101891
0.000940548297
0.000927721364
0.000912783652
0.000896336095
0.000879584055
0.000864405184
0.000790033607
0.000824376329
0.000826808764
0.000844934029
0.000869240079
0.000894193349
0.000916464142
0.000934688773
0.00094886781
0.00095955195
0.000967417856
0.00097308599
0.000977042126
0.00097962314
0.000981034722
0.000981374148
0.000980646844
0.000978774796
0.000975598027
0.000970871955
0.000964266752
0.0009553743
0.000943674658
0.000928680923
0.000910048088
0.00088837083
0.000865040306
0.000842528435
0.000790028378
0.000824396814
0.000826852355
0.000844985155
0.000869262831
0.000894302147
0.000916699872
0.000935093149
0.000949484356
0.000960426276
0.000968598456
0.000974625191
0.000978996917
0.000982055598
0.000984011588
0.000984964736
0.000984917905
0.000983779987
0.000981358186
0.000977340377
0.000971270544
0.000962523538
0.000950022725
0.000932546749
0.000909648088
0.000881106772
0.000847313416
0.000811131804
0.000790016399
0.000824368934
0.000826829128
0.000844989987
0.000869325434
0.000894457515
0.000916987249
0.000935555258
0.000950167348
0.00096138055
0.000969880135
0.000976298016
0.000981134426
0.000984743493
0.000987350076
0.000989070315
0.000989923454
0.000989830848
0.000988599642
0.000985887835
0.000981146453
0.000973325337
0.000960566219
0.000941325003
0.000913749343
0.000875817134
0.000825998786
0.000770799575
0.000790009878
0.000824356745
0.000826828375
0.000845022147
0.000869418299
0.00089464456
0.000917306879
0.000936050346
0.000950885603
0.000962375831
0.00097121457
0.00097804486
0.000983381729
0.000987598766
0.000990946173
0.000993572717
0.000995538856
0.000996816236
0.00099726924
0.000996611081
0.000994283243
0.000988649661
0.00097750342
0.000958692679
0.00092779902
0.000878891611
0.000807443845
0.000738214146
0.000790007821
0.000824356868
0.000826844278
0.00084507287
0.000869529079
0.000894846546
0.000917636656
0.000936549739
0.000951602341
0.000963365208
0.000972542047
0.000979789704
0.000985641986
0.000990498077
0.000994643236
0.000998274573
0.00100151968
0.001004444
0.00100704343
0.00100921538
0.00101044338
0.00100880014
0.00100291336
0.000989849858
0.000963560431
0.000913809599
0.000831001544
0.000757143084
0.000754520059
0.000837736729
0.00088527677
0.000937745831
0.000987160341
0.00102955675
0.00106360083
0.00109017211
0.0011108627
0.00112712253
0.00114009509
0.0011506236
0.00115930422
0.00116655722
0.00117268394
0.00117790457
0.00118238349
0.00118624675
0.00118959382
0.00119250534
0.00119504842
0.00119728021
0.00119925035
0.00120100258
0.00120257588
0.00120400521
0.00120532193
0.00120655406
0.000771501048
0.000773525317
0.000758520547
0.000767401351
0.000789781007
0.000819504922
0.000851603636
0.00088285078
0.000911592853
0.000937136771
0.000959376456
0.00097854841
0.000995029568
0.00100921365
0.00102145848
0.00103206958
0.00104129973
0.00104935565
0.00105640685
0.001062594
0.00106803574
0.00107283401
0.00107707794
0.00108084682
0.00108421208
0.00108723876
0.00108998637
0.00109250943
0.00079145326
0.000787120013
0.000747908346
0.000730791785
0.0007283949
0.000736329128
0.000750600044
0.000768064097
0.00078666585
0.000805111938
0.000822616665
0.000838772974
0.000853433344
0.000866602472
0.00087836444
0.000888838767
0.000898154477
0.000906436251
0.000913798544
0.000920344139
0.000926164807
0.000931342783
0.000935952423
0.000940061721
0.00094373356
0.000947026654
0.000949996179
0.000952694135
0.000801363765
0.000808449168
0.000768050079
0.000744581709
0.000732834254
0.000729875427
0.00073301311
0.000739978027
0.000749197239
0.000759600458
0.000770433062
0.000781184356
0.000791535236
0.000801301709
0.000810390112
0.00081876616
0.000826432884
0.000833415098
0.000839749311
0.000845477657
0.000850644447
0.000855294355
0.000859471603
0.000863219699
0.000866581448
0.000869599047
0.000872314143
0.000874767799
0.000805281406
0.00082072298
0.000784166006
0.000761965648
0.000749419413
0.000743738029
0.000742669084
0.000744520323
0.000748235139
0.000753148863
0.000758791256
0.000764817295
0.000770977965
0.000777094689
0.000783040685
0.000788729074
0.000794103705
0.000799131354
0.000803795487
0.000808091625
0.000812023986
0.000815603115
0.000818844287
0.000821766471
0.000824391659
0.000826744403
0.000828851454
0.000830741392
0.000807382204
0.000827652547
0.000794251205
0.000774202454
0.000763069485
0.00075793831
0.00075645404
0.000756993106
0.000758675112
0.000761055805
0.00076388622
0.000767009449
0.000770315729
0.00077371798
0.000777141669
0.000780522923
0.000783808673
0.000786956432
0.000789933584
0.000792716436
0.00079528918
0.000797642882
0.000799774616
0.000801686784
0.000803386577
0.000804885534
0.000806199129
0.000807346335
0.000808666177
0.000831926716
0.000800747299
0.000782416942
0.000772683799
0.000768637628
0.000767825487
0.000768562852
0.000769970242
0.00077165172
0.000773439524
0.000775272179
0.000777131909
0.000779009899
0.000780892485
0.000782759437
0.000784586313
0.000786347313
0.000788017642
0.000789575204
0.000791001666
0.000792283035
0.000793409959
0.000794377876
0.000795187054
0.000795842556
0.000796354094
0.000796735745
0.000809511643
0.000834772724
0.000805191085
0.000788185671
0.000779583702
0.000776504582
0.000776457109
0.000777718538
0.000779396151
0.000781099963
0.00078268349
0.000784118421
0.000785425925
0.00078663625
0.000787771319
0.000788841054
0.00078984498
0.00079077522
0.000791619541
0.000792363961
0.000792994767
0.000793499991
0.000793870518
0.000794100917
0.00079419005
0.000794141499
0.000793963766
0.000793670226
0.000810111644
0.000836788846
0.000808384885
0.000792416613
0.000784736295
0.00078247415
0.000783115239
0.000784912647
0.000786967296
0.000788895352
0.000790563066
0.000791958979
0.000793122928
0.000794103622
0.000794940058
0.000795657225
0.000796267357
0.000796772791
0.000797169094
0.000797447898
0.000797599232
0.000797613397
0.000797482494
0.000797201679
0.0007967702
0.000796192201
0.000795477222
0.000794640377
0.000810559398
0.000838285506
0.000810773528
0.000795628431
0.000788710302
0.000787147011
0.000788400925
0.000790702516
0.000793144921
0.000795348976
0.00079719212
0.000798676879
0.000799857329
0.000800795003
0.000801539633
0.000802124788
0.000802569264
0.00080288015
0.000803056179
0.0008030908
0.000802974776
0.000802698365
0.000802253176
0.000801633805
0.00080083925
0.000799874079
0.000798749272
0.000797482624
0.00081090613
0.000839439054
0.000812621569
0.000798139265
0.00079185705
0.000790896159
0.000792697407
0.000795469078
0.000798293435
0.000800791748
0.000802848981
0.000804478726
0.000805746979
0.000806726176
0.000807474989
0.000808033703
0.000808425681
0.00080866064
0.000808738271
0.000808651595
0.000808389895
0.00080794124
0.000807294759
0.000806442699
0.000805318383
0.000803605066
0.000801892922
0.000800211306
0.000811182785
0.000840355562
0.000814092467
0.00080015201
0.000794404862
0.000793965744
0.00079625637
0.000799464373
0.000802659566
0.000805460125
0.000807754672
0.000809564412
0.000810964528
0.000812036398
0.000812846293
0.000813440237
0.000813845333
0.000814073069
0.000814123084
0.000813986754
0.000813650431
0.000813098314
0.000811363916
0.000809521605
0.00080754297
0.000805135379
0.000802912785
0.00080091901
0.000811408737
0.000841101307
0.000815290369
0.000801799641
0.00079650695
0.000796522198
0.000799251042
0.000802862716
0.000806414426
0.000809519232
0.000812066554
0.00081408228
0.000815648217
0.00081685266
0.000817768002
0.000818444958
0.000818913558
0.00081918631
0.000819261958
0.000819084022
0.000817487275
0.000815722285
0.000812853402
0.000809997859
0.000807223636
0.000804589435
0.000802154094
0.000799973705
0.000811596575
0.000841719316
0.000816283747
0.000803171475
0.000798268478
0.000798681818
0.000801804141
0.00080578877
0.000809681073
0.000813088151
0.000815898423
0.0008181404
0.000819900521
0.000821272297
0.000822332931
0.0008231368
0.000823716024
0.000824083307
0.00082317267
0.00082165886
0.000818727853
0.000815678487
0.000812568049
0.000809458791
0.000806418409
0.000803519061
0.000800834875
0.000798437953
0.000811754765
0.000842238433
0.000817118847
0.000804328811
0.000799762966
0.000800527267
0.00080400411
0.000808333414
0.000812549962
0.000816254789
0.000819334443
0.000821818808
0.000823797547
0.000825368246
0.000826611982
0.000827585991
0.000827870958
0.000826929247
0.000824627975
0.000821731187
0.000818614082
0.00081533317
0.000811951181
0.000808539257
0.00080517779
0.000801955436
0.000798965959
0.000796302767
0.000811889141
0.000842678496
0.000817827644
0.000805314539
0.000801042593
0.000802118024
0.00080591538
0.000810563545
0.000815088127
0.000819084541
0.000822437294
0.000825176935
0.000827395681
0.000829194637
0.000830658192
0.000830794687
0.000829799255
0.000827453843
0.000824728426
0.000821674065
0.000818342519
0.000814791066