/*--------------------------------*- C++ -*----------------------------------*\
| =========                 |                                                 |
| \\      /  F ield         | foam-extend: Open Source CFD                    |
|  \\    /   O peration     | Version:     4.1                                |
|   \\  /    A nd           | Web:         http://www.foam-extend.org         |
|    \\/     M anipulation  |                                                 |
\*---------------------------------------------------------------------------*/
FoamFile
{
    version     2.0;
    format      ascii;
    class       volVectorField;
    location    "0.3";
    object      U;
}
// * * * * * * * * * * * * * * * * * * * * * * * * * * * * * * * * * * * * * //

dimensions      [0 1 -1 0 0 0 0];

internalField   nonuniform List<vector> 
35840
(
(3.94086037 0.268528603 0.261844326)
(3.20795385 0.371831662 0.357379722)
(2.43829686 0.266506835 0.249860682)
(1.72034902 0.156944652 0.141978698)
(1.293671 0.0888163231 0.0772235575)
(1.05218585 0.0517239123 0.04393969)
(0.89342984 0.0312037881 0.0270977935)
(0.785221309 0.0189917222 0.0180825729)
(0.711700571 0.0115194987 0.0131454651)
(0.660053376 0.00694350352 0.010423091)
(0.622074067 0.00408812298 0.0088149733)
(0.593097334 0.00225495964 0.00773640804)
(0.570339001 0.00105378055 0.00691606144)
(0.552042719 0.000257011402 0.00623207859)
(0.537074707 -0.000274624765 0.00562974635)
(0.524678951 -0.000627366989 0.00508548222)
(0.51432563 -0.000855104102 0.00458921185)
(0.505621263 -0.000992990465 0.00413548138)
(0.498267327 -0.001064359 0.00372048357)
(0.492022728 -0.00108416145 0.00334103601)
(0.486687408 -0.00106255209 0.00299411572)
(0.482091454 -0.0010070418 0.00267700815)
(0.478087803 -0.000923565796 0.00238745425)
(0.474547646 -0.000817077307 0.00212364683)
(0.471357372 -0.000692026091 0.00188420721)
(0.468416698 -0.000552685273 0.00166813927)
(0.465637626 -0.000403318751 0.00147475857)
(0.462943983 -0.000248213542 0.00130360549)
(4.52124964 0.409953374 0.331399984)
(4.20224616 0.638137046 0.509000318)
(3.63676326 0.543496226 0.407274828)
(2.94289421 0.391290097 0.261505624)
(2.41565112 0.26750237 0.152219137)
(2.06112922 0.18154362 0.0859712184)
(1.80860191 0.124035541 0.0502565051)
(1.62434191 0.0850695091 0.0317480273)
(1.49028014 0.0584648192 0.0220770141)
(1.39085484 0.040325347 0.016920907)
(1.31482792 0.0278762655 0.0140041163)
(1.2551738 0.0192067868 0.0121474328)
(1.20739446 0.0130701184 0.010802193)
(1.16846011 0.00865609984 0.00972850374)
(1.13629302 0.00543437378 0.00881759296)
(1.10944042 0.00305806826 0.00801729281)
(1.08685124 0.00129961356 0.00730089106)
(1.06773871 7.19436881e-06 0.00665285427)
(1.05148588 -0.000922221363 0.00606222483)
(1.03759803 -0.00155970997 0.00552002318)
(1.02566971 -0.00195595923 0.00501875213)
(1.01535943 -0.00214847971 0.00455250241)
(1.00637236 -0.00216655464 0.00411685183)
(0.998450866 -0.00203455688 0.00370858723)
(0.991367781 -0.00177414167 0.0033255405)
(0.984921976 -0.00140572275 0.00296646414)
(0.978935738 -0.000949375086 0.00263089301)
(0.9732534 -0.000425262624 0.00231897529)
(4.4421336 0.221361456 0.337952073)
(4.08278436 0.436516122 0.518819409)
(3.6571377 0.463115701 0.418089683)
(3.13712429 0.408853154 0.275889553)
(2.71978652 0.331885818 0.166458656)
(2.42182657 0.257593351 0.0961058856)
(2.1981117 0.195660763 0.0564765498)
(2.02637216 0.147034379 0.0358959759)
(1.8948805 0.109774695 0.0253578579)
(1.79247964 0.0816255348 0.0198208557)
(1.71061844 0.0605129769 0.0166901754)
(1.64387151 0.0446855288 0.0146514974)
(1.58869329 0.0327664664 0.0131068032)
(1.54257907 0.0237200201 0.0118172593)
(1.50370946 0.0167903232 0.0106907163)
(1.47073749 0.0114397085 0.00968886702)
(1.44263471 0.00729183139 0.00879271284)
(1.41859154 0.00408477456 0.00798909679)
(1.39795361 0.0016354724 0.00726586877)
(1.38018157 -0.000186225277 0.00661117639)
(1.36481724 -0.00147480699 0.00601390158)
(1.35146873 -0.00230135442 0.0054642492)
(1.33979395 -0.00272184469 0.00495418611)
(1.32949022 -0.00278336226 0.00447747974)
(1.32028758 -0.00252841876 0.00402957252)
(1.31194436 -0.00199783942 0.00360741658)
(1.30424452 -0.00123259381 0.00320927163)
(1.29699639 -0.000274779619 0.0028344646)
(4.41370728 0.12336989 0.337929331)
(3.97527168 0.28599546 0.516843731)
(3.52614218 0.346941453 0.410945422)
(3.04826511 0.341761065 0.267056623)
(2.69650303 0.304724604 0.158688905)
(2.4604951 0.256414732 0.0893127447)
(2.28810673 0.208524567 0.0503500607)
(2.15601944 0.166236874 0.0306498219)
(2.05358263 0.130830917 0.0211784043)
(1.97172803 0.101985681 0.0166852346)
(1.90396815 0.0788524501 0.0144684595)
(1.84660722 0.0604549075 0.0131706737)
(1.79748351 0.0458659456 0.0121824544)
(1.75514195 0.0342855803 0.0112839901)
(1.71851951 0.0250651369 0.0104185528)
(1.68679518 0.0177023054 0.00958390014)
(1.65929737 0.0118207409 0.0087909856)
(1.63545427 0.00714444782 0.00804925608)
(1.61476882 0.00347309483 0.00736250067)
(1.5968037 0.00066128167 0.00672938058)
(1.58116977 -0.00139822067 0.00614527514)
(1.56751796 -0.00278727902 0.00560439589)
(1.55553258 -0.0035714284 0.00510073415)
(1.54492617 -0.00380712541 0.00462882936)
(1.53543605 -0.00354722285 0.00418421574)
(1.52682219 -0.0028447597 0.0037635911)
(1.51886624 -0.00175540593 0.00336481594)
(1.51137158 -0.000338763353 0.00298680537)
(4.40562819 0.0838876704 0.338530446)
(3.92709301 0.20587368 0.518667793)
(3.43458095 0.264638391 0.409526345)
(2.94273521 0.274642463 0.261034415)
(2.60542604 0.25766936 0.15031192)
(2.39687468 0.227964839 0.0806005899)
(2.25545839 0.194204035 0.0421480055)
(2.15329178 0.161467261 0.0232705934)
(2.0774006 0.132035819 0.0147418276)
(2.01793822 0.106560466 0.0111889276)
(1.96850057 0.0849703317 0.00984752642)
(1.92583675 0.0669049005 0.00933327193)
(1.88836274 0.0519020885 0.00902088925)
(1.85521314 0.0394931136 0.00868621872)
(1.82585635 0.0292523756 0.00828020873)
(1.7999151 0.0208196549 0.00781484598)
(1.77707084 0.0139047299 0.00731701365)
(1.75702377 0.00828197951 0.00681134679)
(1.73948223 0.00378027885 0.00631493565)
(1.72416144 0.000271633226 0.00583725721)
(1.71078611 -0.00234046799 0.00538224998)
(1.6990906 -0.00413077392 0.00495070128)
(1.68881998 -0.00516047384 0.00454137348)
(1.67973075 -0.00548437618 0.00415214634)
(1.67159157 -0.00515663536 0.00378082625)
(1.66418441 -0.00423500165 0.00342559323)
(1.65730612 -0.00278369229 0.00308522003)
(1.65077046 -0.000874906396 0.00275914589)
(4.40178172 0.0613580322 0.339164855)
(3.9024171 0.153224689 0.520513907)
(3.38074185 0.204411129 0.410099096)
(2.86921371 0.221080984 0.258748299)
(2.52750399 0.215747058 0.145979841)
(2.32476923 0.198079772 0.0755298527)
(2.19488759 0.174630133 0.0370222559)
(2.10723071 0.149780489 0.0183400686)
(2.04672147 0.125968688 0.0101167335)
(2.00215836 0.104262318 0.00691333251)
(1.96645231 0.0850061122 0.00592982361)
(1.93606242 0.0682033304 0.0057717092)
(1.90934149 0.053697726 0.00580765561)
(1.88549954 0.0412676998 0.00580467517)
(1.86415507 0.030679136 0.00570622409)
(1.845109 0.0217140217 0.00552033815)
(1.82822006 0.0141840286 0.00527297246)
(1.81334955 0.00793485965 0.00498994246)
(1.80034429 0.00284504094 0.00469084125)
(1.7890335 -0.00117872016 0.00438821021)
(1.77923482 -0.00420806641 0.00408942018)
(1.77075415 -0.0062992201 0.00379831439)
(1.76339192 -0.00749997153 0.00351625129)
(1.75694601 -0.00785618605 0.00324324421)
(1.75121518 -0.00741737342 0.00297875602)
(1.74600269 -0.00624119255 0.00272216612)
(1.74112013 -0.00439667199 0.00247304386)
(1.7363916 -0.00196591328 0.00223129554)
(4.39956825 0.0466869594 0.339653737)
(3.88830337 0.117720313 0.521954131)
(3.34831615 0.161235902 0.411269742)
(2.82103087 0.180135725 0.258566381)
(2.47121189 0.181403205 0.144563802)
(2.26666961 0.171513677 0.0735012242)
(2.13922978 0.155409578 0.0347879171)
(2.05690881 0.136659265 0.0160498449)
(2.00342376 0.117505252 0.00782571927)
(1.96664107 0.0991548689 0.00464323391)
(1.93888811 0.0821828393 0.00368836458)
(1.91626977 0.0668170806 0.00357034166)
(1.8969239 0.0531003295 0.00366488986)
(1.8799458 0.0409813441 0.00373987329)
(1.86491247 0.0303675932 0.00373496112)
(1.85163186 0.0211553967 0.00365323348)
(1.83999828 0.0132465903 0.00351604843)
(1.82992271 0.00655690444 0.00334548673)
(1.82130552 0.00101902804 0.00315841499)
(1.81402809 -0.00341856352 0.00296577629)
(1.8079529 -0.00679448918 0.0027742131)
(1.80292369 -0.00913866049 0.00258713873)
(1.79877002 -0.0104784421 0.00240580245)
(1.7953107 -0.0108445477 0.0022302858)
(1.79235794 -0.0102766085 0.0020601408)
(1.7897222 -0.00882806899 0.00189476526)
(1.78721767 -0.00656987567 0.00173362662)
(1.78466827 -0.00359245252 0.00157639199)
(4.39821733 0.0366457936 0.340043362)
(3.87961588 0.0929740541 0.523110314)
(3.32762236 0.129548988 0.412496568)
(2.78860934 0.148159998 0.259133941)
(2.4311358 0.152907482 0.14440913)
(2.22289054 0.148068247 0.0729516329)
(2.09463231 0.137249427 0.0341040633)
(2.0136139 0.123226958 0.0153199166)
(1.96285964 0.107908653 0.00705964574)
(1.92966528 0.0924748899 0.00383028222)
(1.90597816 0.0776041266 0.00281400669)
(1.88765757 0.0636607255 0.00262812147)
(1.872674 0.0508220882 0.0026605565)
(1.86000952 0.0391592353 0.00268733647)
(1.84916972 0.0286860491 0.00265111974)
(1.8399229 0.0193891132 0.00255486452)
(1.83214657 0.0112457656 0.00241828702)
(1.82575016 0.00423459386 0.00226117857)
(1.82064101 -0.00165947918 0.00209801229)
(1.81671325 -0.00644416652 0.00193786884)
(1.81383963 -0.0101205767 0.00178581393)
(1.81187327 -0.0126870968 0.00164386463)
(1.81064867 -0.014144831 0.00151222357)
(1.80998438 -0.0145035211 0.00139016453)
(1.80968718 -0.0137877068 0.00127655052)
(1.80955747 -0.0120424573 0.00117013641)
(1.80939617 -0.00933788785 0.00106971601)
(1.8090126 -0.0057716773 0.000974205529)
(4.39732358 0.0293705038 0.340350111)
(3.87389421 0.0747915875 0.524006508)
(3.31374033 0.105399274 0.413537242)
(2.76610794 0.12259614 0.25983407)
(2.40221347 0.128956785 0.1446897)
(2.19005968 0.127293132 0.0729985842)
(2.05989157 0.120179885 0.0340848776)
(1.97851733 0.109725306 0.0152906772)
(1.92852608 0.09748475 0.00701759404)
(1.89683438 0.0845208804 0.00375707381)
(1.87512514 0.0715228778 0.00268869717)
(1.85908442 0.0589196391 0.00243502366)
(1.84656559 0.0469705272 0.00239358972)
(1.83646999 0.0358301758 0.00234877359)
(1.82824868 0.0255908444 0.00224827368)
(1.82163484 0.016309718 0.00209747933)
(1.81648521 0.00802673623 0.00191691826)
(1.81269821 0.000775882037 0.00172618623)
(1.81017712 -0.00540889786 0.00153917603)
(1.80881325 -0.0104908749 0.0013643423)
(1.80847778 -0.0144309895 0.00120585987)
(1.8090195 -0.0171917054 0.00106495911)
(1.81026418 -0.0187423316 0.000941204689)
(1.81201641 -0.019065732 0.000833307303)
(1.81406336 -0.0181658494 0.000739590657)
(1.81618087 -0.0160749918 0.000658276179)
(1.81814194 -0.0128597358 0.000587553606)
(1.81972691 -0.00862441652 0.000525603639)
(4.39669903 0.0238552321 0.340587566)
(3.86993566 0.0608930526 0.524693022)
(3.30405472 0.0864795015 0.414371918)
(2.75003889 0.101821129 0.260486023)
(2.38093219 0.108648665 0.145089628)
(2.16516368 0.108837307 0.0732530894)
(2.03278044 0.104211648 0.0343008186)
(1.9503521 0.0963510445 0.0155076089)
(1.90019355 0.086490237 0.00723457823)
(1.86896233 0.075538396 0.00396082701)
(1.84814778 0.0641387296 0.00286288522)
(1.8333025 0.052731972 0.00256544096)
(1.82218859 0.0416168011 0.00247160124)
(1.81364564 0.0309985614 0.00237136544)
(1.80708388 0.0210234161 0.00221636715)
(1.80221088 0.011801704 0.00201434905)
(1.7988687 0.00342426022 0.00178712544)
(1.79694826 -0.00402677153 0.00155489467)
(1.79634958 -0.0104713445 0.00133199138)
(1.79696137 -0.01582822 0.00112696202)
(1.79865112 -0.0200157758 0.00094383611)
(1.80125961 -0.022955799 0.000783763535)
(1.80459853 -0.0245796998 0.000646298988)
(1.80845103 -0.0248368038 0.000530165292)
(1.81257521 -0.0237039667 0.000433588642)
(1.81671072 -0.0211953596 0.000354535372)
(1.82058905 -0.0173708534 0.000290923388)
(1.82394711 -0.0123413975 0.00024070131)
(4.39624626 0.0195301147 0.340770722)
(3.8670905 0.0499336775 0.525220702)
(3.29706249 0.0712922612 0.41503121)
(2.73824426 0.0846612115 0.261041305)
(2.36494574 0.0912759882 0.145484784)
(2.14599842 0.0924173981 0.0735519378)
(2.01140947 0.0893790618 0.0345724181)
(1.92763967 0.0833335758 0.015779889)
(1.87684156 0.0752440915 0.00750858945)
(1.84550241 0.0658638274 0.00422863972)
(1.82497387 0.0557628106 0.00311403608)
(1.81070615 0.0453606123 0.00279025817)
(1.80038789 0.0349646197 0.0026634147)
(1.79280809 0.0248051468 0.0025267477)
(1.7873439 0.0150618904 0.00233425627)
(1.78368324 0.00588313682 0.00209513389)
(1.7816582 -0.00260013933 0.00183201611)
(1.78115666 -0.0102641438 0.00156576243)
(1.78207877 -0.0169854603 0.00131121045)
(1.78431417 -0.0226382124 0.00107703978)
(1.7877284 -0.0270950341 0.000867483182)
(1.7921545 -0.0302313285 0.000684002276)
(1.79738837 -0.0319329771 0.000526388045)
(1.80318708 -0.032107052 0.000393530826)
(1.80927142 -0.0306946419 0.000283906881)
(1.81533315 -0.0276844815 0.000195779315)
(1.82104778 -0.0231253787 0.000127272796)
(1.82609247 -0.017134903 7.63562589e-05)
(4.39590743 0.0160463834 0.340912404)
(3.86497668 0.0410695932 0.525629165)
(3.29185646 0.05884358 0.415550421)
(2.72935664 0.070282041 0.261497588)
(2.35267933 0.0763038917 0.145834439)
(2.13099288 0.0778045765 0.0738355786)
(1.99433374 0.0757052245 0.0348353065)
(1.90912926 0.0708720343 0.0160408466)
(1.85744496 0.0640472809 0.0077688944)
(1.82566245 0.055841329 0.00448362232)
(1.80504097 0.0467419587 0.0033573519)
(1.79095678 0.037129247 0.00301599295)
(1.78104237 0.0272990365 0.0028673846)
(1.77404695 0.0174877355 0.00270659944)
(1.76932192 0.00789248855 0.00248890131)
(1.76654077 -0.00131339639 0.0022241494)
(1.76553029 -0.00996819869 0.001935469)
(1.76617981 -0.0179121728 0.00164417021)
(1.76839456 -0.0249811099 0.00136516133)
(1.77206929 -0.0310036896 0.0011072247)
(1.77707119 -0.0358024612 0.00087477153)
(1.78322789 -0.0391990105 0.000669508058)
(1.79031905 -0.0410235731 0.000491553996)
(1.79807174 -0.0411289928 0.000340240202)
(1.80616104 -0.0394082824 0.000214523645)
(1.81421745 -0.035814072 0.000113154292)
(1.82184231 -0.0303772358 3.46928237e-05)
(1.82863158 -0.0232210065 -2.25787069e-05)
(4.39564651 0.0131812924 0.341022861)
(3.86335885 0.033756473 0.525948816)
(3.28786827 0.0484686296 0.415961816)
(2.72248626 0.058092146 0.261868911)
(2.34305863 0.0633242363 0.146131793)
(2.11902296 0.0648015297 0.0740863631)
(1.98046927 0.063183338 0.0350699226)
(1.89383127 0.0591074998 0.0162716747)
(1.841135 0.0531403191 0.00799676437)
(1.80870125 0.0457675496 0.00470560312)
(1.78773147 0.0373953301 0.0035695072)
(1.77355255 0.0283554028 0.00321473304)
(1.76375777 0.0189193576 0.00305023201)
(1.75706841 0.00931627322 0.00287213506)
(1.7528186 -0.000251920431 0.00263629983)
(1.75067423 -0.00959769085 0.00235297258)
(1.75046344 -0.018536692 0.00204560255)
(1.75208348 -0.0268785879 0.00173546324)
(1.75545111 -0.0344206617 0.00143731271)
(1.76047286 -0.0409445901 0.00115992615)
(1.76702392 -0.0462172878 0.000907821248)
(1.77493131 -0.0499968333 0.000682906796)
(1.78396027 -0.0520442823 0.000485636346)
(1.79380503 -0.0521417751 0.000315811411)
(1.8040858 -0.0501164672 0.000172963466)
(1.81435517 -0.0458684426 5.65123501e-05)
(1.82411634 -0.0393990067 -3.42721332e-05)
(1.83285449 -0.0308338866 -0.000100474384)
(4.39544024 0.0107877734 0.34111008)
(3.86208612 0.0276321307 0.526202658)
(3.28472914 0.0397120799 0.416291675)
(2.71703964 0.0476658733 0.262171985)
(2.33534019 0.0520229036 0.146381497)
(2.10928033 0.0532383829 0.0743022976)
(1.9690068 0.051785198 0.0352733114)
(1.88097809 0.0481310083 0.0164706767)
(1.82720902 0.0427029845 0.00819167034)
(1.79398924 0.035880674 0.00489436716)
(1.77248746 0.0279936577 0.00374952322)
(1.75800087 0.0193220553 0.00338370636)
(1.74809871 0.0101054436 0.00320662272)
(1.74148591 0.000555735961 0.00301498353)
(1.73748873 -0.00913057642 0.0027650527)
(1.73577441 -0.0187609311 0.00246742042)
(1.73618102 -0.0281360232 0.00214544293)
(1.73862244 -0.0370404709 0.00182004973)
(1.74303667 -0.0452353166 0.0015058019)
(1.7493526 -0.0524534695 0.00121137529)
(1.7574639 -0.0583995973 0.000941297463)
(1.76720603 -0.0627561329 0.000697612803)
(1.77833558 -0.0651970762 0.000481060399)
(1.79051357 -0.0654109382 0.000291906921)
(1.80329623 -0.0631330607 0.000130373859)
(1.81613807 -0.0581856451 -3.21364524e-06)
(1.8284122 -0.0505209326 -0.000108533144)
(1.83945136 -0.0402595168 -0.000185625139)
(4.39527309 0.00876581976 0.341180151)
(3.86105843 0.0224487429 0.526407847)
(3.28219286 0.0322556203 0.416560317)
(2.7126125 0.0386942293 0.262421852)
(2.32900298 0.0421594315 0.146591395)
(2.1011803 0.0429733763 0.074487057)
(1.95934232 0.0414733473 0.0354484351)
(1.86997864 0.0379991297 0.0166416359)
(1.81510854 0.03286769 0.00835832749)
(1.78100918 0.0263687231 0.00505514689)
(1.75883366 0.0187617588 0.00390256882)
(1.74386424 0.0102748311 0.00352741638)
(1.73365842 0.00111041824 0.00333987279)
(1.72691509 -0.0085444894 0.003137139)
(1.7229626 -0.0185074353 0.00287595768)
(1.72147932 -0.0285895996 0.0025668546)
(1.72232305 -0.0385849318 0.00223271847)
(1.72543594 -0.0482593683 0.00189412731)
(1.73079075 -0.0573409967 0.00156538966)
(1.73835397 -0.0655128158 0.00125498881)
(1.74805405 -0.0724101144 0.000967324433)
(1.75975058 -0.0776250689 0.000704442731)
(1.77320369 -0.0807215404 0.000467296114)
(1.78804602 -0.0812629867 0.000256621123)
(1.80376257 -0.0788552769 7.34560085e-05)
(1.81968612 -0.0732036623 -8.06630272e-05)
(1.83501733 -0.064178672 -0.000203851396)
(1.84887729 -0.0518795488 -0.000294448433)
(4.39513444 0.00704575379 0.341237654)
(3.86020778 0.0180328555 0.526577086)
(3.28009126 0.0258729367 0.416783103)
(2.70892465 0.0309511916 0.262630833)
(2.32367775 0.0335505661 0.146769353)
(2.09429773 0.0338914212 0.074645787)
(1.95102492 0.0322097855 0.0355998045)
(1.86038009 0.028747907 0.0167894271)
(1.80439445 0.0237346135 0.00850212023)
(1.76934354 0.0173832815 0.00519363597)
(1.74637581 0.00988969587 0.00403431323)
(1.73076869 0.00143021721 0.00365112721)
(1.72007696 -0.00783373727 0.00345477262)
(1.71300266 -0.0177465396 0.00324314631)
(1.70888526 -0.028148083 0.00297302716)
(1.70742338 -0.0388628947 0.00265443579)
(1.70850591 -0.0496878583 0.00230981444)
(1.71211727 -0.0603786339 0.00195940042)
(1.71828234 -0.0706360315 0.0016171254)
(1.72702619 -0.0800940534 0.00129109451)
(1.73833607 -0.0883122584 0.000985414451)
(1.75212079 -0.094776223 0.000701966043)
(1.76816649 -0.0989109186 0.000441766079)
(1.78609158 -0.100112457 0.000205967327)
(1.80530804 -0.0978029841 -3.45275104e-06)
(1.82500115 -0.0915105752 -0.000183337802)
(1.84414338 -0.0809693695 -0.00032945952)
(1.86155895 -0.0662248255 -0.000437397444)
(4.39501691 0.0055780125 0.341285988)
(3.85948709 0.0142606617 0.526719719)
(3.27830762 0.0204006062 0.416971481)
(2.70577948 0.0242700854 0.262808544)
(2.31910091 0.0260570876 0.146922129)
(2.08832286 0.0259014034 0.0747834218)
(1.943719 0.0239613235 0.0357318112)
(1.85183807 0.020403209 0.0169185231)
(1.7947256 0.0153842937 0.00862770593)
(1.75866085 0.00905239187 0.00531453585)
(1.73479355 0.0015447037 0.0041492438)
(1.71840218 -0.00701387028 0.00375914685)
(1.7070455 -0.0165061728 0.00355581718)
(1.69943534 -0.0268142923 0.00333734644)
(1.69492896 -0.03780978 0.00306005321)
(1.69325389 -0.049341829 0.0027335133)
(1.69434172 -0.0612224872 0.00237982128)
(1.69823488 -0.0732092329 0.00201871863)
(1.70503159 -0.0849856633 0.00166357545)
(1.71484303 -0.0961421085 0.00132193398)
(1.72774905 -0.10615931 0.000997378337)
(1.74374598 -0.114400175 0.000691366851)
(1.76268433 -0.120116893 0.000404723196)
(1.78419854 -0.122482804 0.000138846887)
(1.80763798 -0.120659097 -0.000103278717)
(1.83201637 -0.113904071 -0.000316359892)
(1.85600623 -0.101723825 -0.000492661189)
(1.87801087 -0.0840474001 -0.000623374647)
(4.39491532 0.0043266458 0.341327648)
(3.85886351 0.0110421269 0.526842561)
(3.27676027 0.0157187846 0.417133872)
(2.70303827 0.0185268592 0.26296226)
(2.31508413 0.0195733122 0.147055116)
(2.08303094 0.0189326529 0.0749041132)
(1.93717703 0.0167019346 0.0358481566)
(1.84409444 0.0129871952 0.017032543)
(1.7858421 0.00788647342 0.0087386387)
(1.74870414 0.00149016687 0.00542116605)
(1.7238334 -0.00611936859 0.00425058251)
(1.7065127 -0.014868306 0.00385512067)
(1.69430808 -0.024687027 0.0036466301)
(1.68594401 -0.0355027101 0.00342284958)
(1.6807999 -0.0472293906 0.00313978121)
(1.67863908 -0.0597545772 0.00280671166)
(1.67944652 -0.0729216921 0.00244523274)
(1.68333905 -0.0865076953 0.00207444487)
(1.69051255 -0.100196152 0.00170698626)
(1.70119879 -0.113547107 0.00134961072)
(1.71561602 -0.125966919 0.0010050834)
(1.73390441 -0.136684213 0.000674075284)
(1.75604098 -0.144742104 0.000356812672)
(1.7817338 -0.149021582 5.45982139e-05)
(1.8103045 -0.148314995 -0.000228638049)
(1.84058242 -0.141469198 -0.000484897422)
(1.8708514 -0.127608394 -0.00070140837)
(1.89891478 -0.106425319 -0.000862169409)
(4.39482604 0.00326501134 0.34136443)
(3.85831407 0.00831039628 0.526950508)
(3.27539216 0.0117379452 0.417276366)
(2.70060372 0.0136278892 0.263097341)
(2.31149417 0.0140184988 0.147172412)
(2.07826139 0.0129308319 0.0750110949)
(1.93122036 0.0104127744 0.0359516898)
(1.83696117 0.00652152992 0.0171341127)
(1.77755272 0.00130507589 0.0088372187)
(1.73928202 -0.00519755612 0.00551574462)
(1.71330486 -0.0129553377 0.00434117676)
(1.69490817 -0.0219452872 0.0039419346)
(1.68166406 -0.0321495576 0.00372952395)
(1.67230925 -0.0435487186 0.0035015957)
(1.66624632 -0.05611153 0.00321401915)
(1.66327784 -0.0697805981 0.00287567114)
(1.66344991 -0.0844520516 0.00250752533)
(1.66696878 -0.0999477169 0.00212790311)
(1.67415392 -0.115978906 0.00174853434)
(1.68539842 -0.1321019 0.0013751317)
(1.70111825 -0.147667453 0.00100928396)
(1.72167718 -0.161770693 0.00065041128)
(1.74727564 -0.173214122 0.000297595201)
(1.77779751 -0.180505464 -4.84746629e-05)
(1.81261839 -0.181922552 -0.000383092025)
(1.85040255 -0.175686605 -0.000694998929)
(1.88894571 -0.16028112 -0.000964168804)
(1.92519503 -0.134931673 -0.00116259435)
(4.39474655 0.00237280406 0.341397586)
(3.857823 0.00601443314 0.527046997)
(3.27416419 0.00838941061 0.417403261)
(2.69840899 0.00950076732 0.263217608)
(2.30823923 0.00932962127 0.147276983)
(2.07390334 0.00785350673 0.0751067077)
(1.92572571 0.0050806065 0.0360443434)
(1.83030845 0.00102763846 0.017224713)
(1.76972546 -0.00430055133 0.00892484568)
(1.73026378 -0.0109104667 0.00560050821)
(1.70307906 -0.0188190098 0.00442336426)
(1.6834577 -0.0280546859 0.00402127513)
(1.66897335 -0.0386558494 0.00380580557)
(1.6583706 -0.0506648579 0.00357471647)
(1.65107133 -0.0641188442 0.00328365475)
(1.64691527 -0.0790354452 0.00294099432)
(1.64601192 -0.0953907261 0.00256698787)
(1.64866733 -0.11308646 0.00217904022)
(1.65534835 -0.131903941 0.00178776774)
(1.66665357 -0.151442031 0.00139754688)
(1.68326928 -0.171039204 0.0010084019)
(1.70589065 -0.18968387 0.000617992301)
(1.73508677 -0.205926192 0.000223635275)
(1.77108977 -0.217819828 -0.00017520593)
(1.81349638 -0.222943035 -0.000573290301)
(1.86090019 -0.218577259 -0.000955528213)
(1.91053426 -0.202134368 -0.00128955951)
(1.95812031 -0.171927839 -0.00152600964)
(4.39467519 0.0016339184 0.34142795)
(3.85737987 0.00411368964 0.527134334)
(3.27305067 0.00561832914 0.417517465)
(2.69641035 0.00608708282 0.263325658)
(2.3052597 0.00545515477 0.147370838)
(2.06988572 0.00366572881 0.0751924102)
(1.92061506 0.000694556013 0.0361269387)
(1.82405555 -0.00347583393 0.0173051071)
(1.76228202 -0.0088764703 0.00900332667)
(1.72157673 -0.0155536751 0.00567742422)
(1.69308817 -0.0235697251 0.00449838492)
(1.67209502 -0.0330048035 0.00409402191)
(1.65616447 -0.0439566838 0.00387616325)
(1.64403962 -0.0565373785 0.00364261199)
(1.63515136 -0.0708664672 0.00334870777)
(1.62936666 -0.0870588719 0.00300222911)
(1.62685152 -0.10520339 0.00262257771)
(1.62801236 -0.125327465 0.00222604652)
(1.63347867 -0.147342652 0.0018218471)
(1.64409555 -0.170964518 0.00141265296)
(1.66090058 -0.195601247 0.000996523911)
(1.68505755 -0.220208882 0.00056895546)
(1.71771144 -0.243121535 0.000125161043)
(1.75972049 -0.261886149 -0.000336863392)
(1.81121582 -0.273168528 -0.000811615998)
(1.8709851 -0.272867571 -0.0012797717)
(1.93571706 -0.256613621 -0.00168868958)
(1.99944543 -0.220971241 -0.00195399868)
(4.39461092 0.00103482253 0.341456031)
(3.85697836 0.00257409733 0.527213963)
(3.27203622 0.003378304 0.417620805)
(2.69458208 0.00333663157 0.263423107)
(2.3025216 0.00234982716 0.147455116)
(2.06616945 0.000335018625 0.0752685622)
(1.91584745 -0.00275890125 0.036199779)
(1.81816539 -0.00697621319 0.0173768268)
(1.75519428 -0.0123765668 0.00907440298)
(1.71320339 -0.0190414599 0.00574743374)
(1.68332583 -0.027075116 0.00456684607)
(1.6608233 -0.0366074522 0.00416060217)
(1.64324462 -0.0477968423 0.00394073963)
(1.6293165 -0.060830745 0.00370502302)
(1.61846082 -0.0759236769 0.0034083905)
(1.61055143 -0.0933100775 0.00305787327)
(1.6057901 -0.113227594 0.00267177076)
(1.60466722 -0.135884527 0.00226487366)
(1.6079718 -0.161402662 0.00184446993)
(1.61682014 -0.18972348 0.0014109375)
(1.63267672 -0.220462878 0.000959804885)
(1.65733277 -0.252699227 0.000484233171)
(1.69278815 -0.284686514 -2.17755274e-05)
(1.74095368 -0.313506611 -0.000558924308)
(1.80305457 -0.334730142 -0.00111552868)
(1.87867727 -0.342288409 -0.00166287799)
(1.96425188 -0.328840804 -0.00211734166)
(2.05169468 -0.287571874 -0.00237663093)
(4.39455325 0.000563153819 0.341482142)
(3.85661543 0.00136488939 0.527286716)
(3.27111359 0.00162724594 0.417714256)
(2.69291277 0.00120288706 0.263510718)
(2.30001115 -3.06291939e-05 0.147529904)
(2.06274062 -0.00217452037 0.0753352428)
(1.91141421 -0.00530004933 0.0362642626)
(1.81264057 -0.00947028896 0.017441487)
(1.74847929 -0.0147680543 0.00913879346)
(1.70517859 -0.0213043336 0.00581095903)
(1.6738477 -0.0292193357 0.00462901241)
(1.64971989 -0.038688064 0.00422103557)
(1.63031024 -0.0499271451 0.00399921068)
(1.61430868 -0.0632008867 0.00376116385)
(1.6011017 -0.0788264094 0.0034612556)
(1.59053691 -0.0971756027 0.00310546255)
(1.5828126 -0.11866923 0.00271047503)
(1.57846108 -0.143755797 0.00228880509)
(1.57839436 -0.172863393 0.00184471837)
(1.58398665 -0.206305946 0.00137490244)
(1.59717124 -0.244116547 0.00087091413)
(1.62051659 -0.285770896 0.000322861189)
(1.6572118 -0.329758396 -0.000275031463)
(1.71082953 -0.372967521 -0.000914334768)
(1.7846737 -0.409938799 -0.00155594275)
(1.88041187 -0.43207678 -0.00212557482)
(1.99527688 -0.427331296 -0.00243350892)
(2.11922181 -0.382153653 -0.00243578101)
(4.3945024 0.00020678361 0.341506773)
(3.85629125 0.000456450137 0.527353273)
(3.27028235 0.000323872511 0.417798129)
(2.69140173 -0.000361858135 0.263588296)
(2.29772946 -0.00173456492 0.147595276)
(2.05960689 -0.00390587881 0.0753937348)
(1.90733521 -0.00695911819 0.0363219491)
(1.80751703 -0.0109702324 0.0174996499)
(1.74219379 -0.0160390801 0.00919676061)
(1.69758608 -0.0222980127 0.00586811391)
(1.66477036 -0.0299147457 0.00468481171)
(1.63893889 -0.0391010549 0.00427501298)
(1.6175554 -0.0501241391 0.00405095377)
(1.5992484 -0.0633193543 0.00380994386)
(1.5833348 -0.079104932 0.00350545097)
(1.56958945 -0.0979973732 0.00314184844)
(1.55814589 -0.120623842 0.00273328539)
(1.5495018 -0.147724716 0.0022884831)
(1.54460494 -0.18013341 0.00180638049)
(1.54500497 -0.218709925 0.00127676118)
(1.55306283 -0.264187152 0.000683372225)
(1.5721957 -0.316863008 9.75263805e-06)
(1.60708988 -0.376036197 -0.000750748879)
(1.66373473 -0.439085917 -0.00157459985)
(1.74901281 -0.500105756 -0.00238908664)
(1.86920991 -0.547910482 -0.00305476254)
(2.02569623 -0.564259296 -0.00313668927)
(2.21013877 -0.522784139 -0.00282453466)
(4.39445936 -4.52171337e-05 0.341530668)
(3.85600904 -0.000181091774 0.52741427)
(3.26954644 -0.000575845106 0.417872626)
(2.69005605 -0.00140965219 0.26365628)
(2.29569079 -0.00281667808 0.147652418)
(2.05679402 -0.00491131584 0.0754454441)
(1.9036519 -0.00778155002 0.0363732592)
(1.80285697 -0.0115103307 0.0175514043)
(1.73642809 -0.0162064468 0.00924825223)
(1.6905528 -0.0220137935 0.00591871116)
(1.65626667 -0.0291163607 0.00473392601)
(1.62870903 -0.0377498344 0.00432206721)
(1.6052746 -0.048217435 0.0040952726)
(1.58450423 -0.0609097795 0.00385026707)
(1.56560619 -0.0763306303 0.00353915374)
(1.54822512 -0.0951291497 0.00316384306)
(1.53234698 -0.118137784 0.00273438437)
(1.5183189 -0.146412502 0.00225296708)
(1.50697019 -0.181266286 0.00170860992)
(1.49983816 -0.224274034 0.00107704662)
(1.49952003 -0.277201499 0.000324341192)
(1.51016986 -0.341761735 -0.000582656192)
(1.53812452 -0.419010879 -0.00165255586)
(1.59255863 -0.508187756 -0.00284105117)
(1.68594768 -0.604406349 -0.00406558892)
(1.83310115 -0.694593088 -0.00519615162)
(2.04762717 -0.752958505 -0.00591284597)
(2.33605669 -0.72574279 -0.0074586515)
(4.39442354 -0.000203782052 0.341552627)
(3.85576887 -0.000579930814 0.527468173)
(3.26891111 -0.00112004261 0.417937189)
(2.68888938 -0.00199753703 0.263715098)
(2.29391887 -0.00333995097 0.147701974)
(2.05433907 -0.00525666931 0.0754905052)
(1.90042012 -0.00783315676 0.0364180149)
(1.79874184 -0.0111522741 0.017596462)
(1.73129797 -0.0153228759 0.00929291968)
(1.68423964 -0.0204891797 0.00596236277)
(1.6485559 -0.026837448 0.00477594234)
(1.61932408 -0.0346097221 0.00436174707)
(1.59385546 -0.0441231504 0.00413162564)
(1.57057985 -0.0557959715 0.00388139387)
(1.548559 -0.0701835923 0.00356119872)
(1.52724663 -0.0880281597 0.00316933649)
(1.50638477 -0.110325431 0.00270949353)
(1.48601977 -0.138413209 0.0021729211)
(1.46663453 -0.174083977 0.00153030086)
(1.4494236 -0.219717105 0.000727733632)
(1.43677976 -0.278404399 -0.000313322131)
(1.43310567 -0.353976755 -0.00168220532)
(1.44610193 -0.450800707 -0.00344264363)
(1.48869252 -0.572840556 -0.00559185855)
(1.58172267 -0.720909799 -0.008123148)
(1.75465835 -0.885873661 -0.0108288448)
(2.05079888 -1.03370911 -0.0141126378)
(2.50323555 -1.03721734 -0.0151360561)