/*--------------------------------*- C++ -*----------------------------------*\
| =========                 |                                                 |
| \\      /  F ield         | foam-extend: Open Source CFD                    |
|  \\    /   O peration     | Version:     4.1                                |
|   \\  /    A nd           | Web:         http://www.foam-extend.org         |
|    \\/     M anipulation  |                                                 |
\*---------------------------------------------------------------------------*/
FoamFile
{
    version     2.0;
    format      ascii;
    class       volVectorField;
    location    "0.3";
    object      U_0;
}
// * * * * * * * * * * * * * * * * * * * * * * * * * * * * * * * * * * * * * //

dimensions      [0 1 -1 0 0 0 0];

internalField   nonuniform List<vector> 
35840
(
(3.94086038 0.268528597 0.261844322)
(3.20795389 0.371831641 0.357379719)
(2.43829696 0.266506796 0.249860687)
(1.7203492 0.156944592 0.141978714)
(1.29367128 0.0888162387 0.077223584)
(1.05218628 0.0517238005 0.0439397263)
(0.893430461 0.0312036456 0.0270978391)
(0.785222178 0.0189915458 0.0180826278)
(0.711701756 0.0115192851 0.0131455291)
(0.660054953 0.00694324997 0.0104231633)
(0.622076123 0.00408782757 0.00881505234)
(0.593099962 0.00225462157 0.00773649161)
(0.570342304 0.00105340032 0.00691614666)
(0.552046804 0.000256590997 0.00623216198)
(0.537079681 -0.000275081644 0.00562982398)
(0.524684923 -0.00062785462 0.00508554981)
(0.514332702 -0.000855614492 0.00458926502)
(0.505629526 -0.000993515331 0.00413551486)
(0.498276868 -0.0010648886 0.00372049242)
(0.492033615 -0.00108468214 0.00334101562)
(0.486699683 -0.00106304855 0.00299406166)
(0.482105134 -0.00100749814 0.00267691685)
(0.478102871 -0.00092396601 0.00238732321)
(0.474564052 -0.000817405559 0.00212347475)
(0.471375029 -0.000692267531 0.00188399419)
(0.468435482 -0.00055282695 0.00166788701)
(0.465657378 -0.000403350456 0.00147447054)
(0.462964508 -0.000248128497 0.00130328707)
(4.52124965 0.409953349 0.331399987)
(4.20224621 0.638136972 0.509000323)
(3.63676337 0.543496097 0.407274838)
(2.94289443 0.391289898 0.261505646)
(2.41565148 0.267502082 0.152219177)
(2.06112978 0.181543223 0.0859712795)
(1.80860275 0.124035014 0.050256589)
(1.62434313 0.0850688328 0.0317481367)
(1.49028184 0.0584639748 0.0220771514)
(1.39085717 0.0403243179 0.0169210737)
(1.31483102 0.0278750377 0.0140043129)
(1.25517784 0.0192053505 0.0121476583)
(1.20739961 0.0130684688 0.0108024455)
(1.16846657 0.00865423803 0.00972877962)
(1.13630099 0.00543230772 0.00881788747)
(1.10945011 0.00305581388 0.0080175998)
(1.08686284 0.00129719562 0.00730120298)
(1.06775243 4.64566125e-06 0.00665316318)
(1.05150187 -0.000924858654 0.00606252208)
(1.03761643 -0.00156238414 0.00552029812)
(1.02569063 -0.00195861013 0.00501899315)
(1.01538294 -0.00215103888 0.00455269831)
(1.00639848 -0.00216894922 0.00411699221)
(0.99847955 -0.0020367119 0.00370866259)
(0.991398919 -0.00177598315 0.00332554273)
(0.984955393 -0.00140718139 0.00296638709)
(0.978971193 -0.000950390183 0.00263073311)
(0.973290589 -0.00042578565 0.00231873208)
(4.44213361 0.221361412 0.337952078)
(4.08278438 0.436515998 0.518819418)
(3.65713775 0.463115485 0.418089694)
(3.13712439 0.408852815 0.27588957)
(2.71978673 0.331885315 0.166458684)
(2.42182694 0.257592635 0.0961059292)
(2.1981123 0.195659784 0.0564766133)
(2.02637311 0.147033087 0.0358960645)
(1.89488193 0.109773043 0.0253579766)
(1.7924817 0.0816234787 0.0198210089)
(1.71062129 0.0605104777 0.0166903665)
(1.64387534 0.0446825551 0.0146517282)
(1.58869832 0.0327629965 0.0131070741)
(1.54258553 0.0237160446 0.0118175686)
(1.50371759 0.0167858472 0.0106910608)
(1.47074754 0.0114347536 0.00968924159)
(1.44264693 0.0072864378 0.00879311029)
(1.41860618 0.00407900355 0.00798950844)
(1.39797088 0.00162940749 0.00726628431)
(1.38020169 -0.000192480138 0.00661158448)
(1.36484037 -0.00148112639 0.006014289)
(1.35149498 -0.00230759484 0.00546460133)
(1.33982339 -0.00272784682 0.00495448856)
(1.32952284 -0.00278895688 0.00447771858)
(1.3203233 -0.00253343395 0.00402973473)
(1.31198301 -0.00200210846 0.00360749084)
(1.30428586 -0.00123596382 0.00320924915)
(1.29704011 -0.000277120201 0.00283433998)
(4.41370729 0.123369841 0.337929338)
(3.97527166 0.285995323 0.516843747)
(3.52614215 0.346941208 0.41094544)
(3.04826506 0.34176066 0.267056642)
(2.696503 0.304723974 0.158688927)
(2.46049514 0.256413802 0.0893127704)
(2.28810691 0.208523254 0.0503500932)
(2.15601987 0.166235096 0.0306498656)
(2.05358343 0.130828592 0.0211784646)
(1.97172936 0.101982733 0.0166853173)
(1.90397018 0.0788488061 0.0144685703)
(1.84661016 0.0604505067 0.0131708174)
(1.79748758 0.0458607404 0.0121826344)
(1.75514739 0.0342795413 0.0112842082)
(1.7185266 0.0250582565 0.010418809)
(1.68680418 0.0176946021 0.0095841923)
(1.65930857 0.0118122628 0.00879130938)
(1.63546796 0.00713527613 0.00804960516)
(1.61478527 0.00346334632 0.00736286676)
(1.59682316 0.000651111662 0.00672975327)
(1.58119245 -0.00140862245 0.00614564171)
(1.56754403 -0.0027976912 0.00560474336)
(1.55556214 -0.00358159917 0.00510104825)
(1.54495927 -0.00381678132 0.00462909517)
(1.53547263 -0.00355608017 0.00418441856)
(1.5268621 -0.00285253724 0.00376371738)
(1.51890927 -0.00176183924 0.00336485418)
(1.51141739 -0.000343619681 0.00298674713)
(4.40562819 0.0838876309 0.338530456)
(3.92709296 0.205873563 0.518667818)
(3.43458081 0.264638167 0.409526375)
(2.94273497 0.274642065 0.261034445)
(2.60542573 0.257668703 0.150311948)
(2.39687433 0.227963821 0.0806006164)
(2.25545807 0.194202546 0.0421480296)
(2.15329156 0.161465187 0.0232706155)
(2.07740063 0.132033044 0.01474185)
(2.01793862 0.106556877 0.0111889541)
(1.96850153 0.0849658201 0.00984756193)
(1.92583847 0.0668993692 0.00933332169)
(1.88836545 0.0518954564 0.00902095824)
(1.85521712 0.039485322 0.00868631108)
(1.82586187 0.0292433939 0.00828032731)
(1.79992247 0.0208094872 0.00781499201)
(1.77708037 0.0138934205 0.00731718658)
(1.75703578 0.00826961868 0.00681154424)
(1.73949704 0.00376700729 0.00631515337)
(1.72417933 0.000257644649 0.00583748727)
(1.71080736 -0.00235492821 0.00538248405)
(1.69911543 -0.00414540803 0.0049509304)
(1.68884853 -0.00517493777 0.0045415864)
(1.67976311 -0.00549828975 0.00415233038)
(1.67162771 -0.00516959638 0.00378096831)
(1.66422422 -0.00424660377 0.00342568059)
(1.65734937 -0.00279354585 0.00308524121)
(1.65081682 -0.000882660873 0.00275909162)
(4.40178171 0.0613580158 0.33916487)
(3.902417 0.153224631 0.520513943)
(3.38074159 0.204410984 0.41009914)
(2.86921326 0.221080666 0.258748343)
(2.52750334 0.215746461 0.145979883)
(2.32476842 0.198078774 0.0755298922)
(2.19488668 0.174628598 0.0370222906)
(2.10722976 0.149778275 0.0183400956)
(2.0467206 0.125965648 0.010116751)
(2.0021577 0.104258305 0.00691334047)
(1.96645205 0.0850009799 0.00592982376)
(1.93606275 0.0681969438 0.00577170453)
(1.90934266 0.053689966 0.00580764988)
(1.88550183 0.0412584718 0.00580467237)
(1.86415878 0.0306683781 0.0057062279)
(1.84511446 0.0217017131 0.00552035157)
(1.82822763 0.0141701987 0.00527299751)
(1.8133596 0.00791959543 0.00498997996)
(1.80035717 0.00282849572 0.00469089022)
(1.78904957 -0.00119632561 0.00438826759)
(1.77925439 -0.00422643911 0.00408948306)
(1.77077751 -0.0063179923 0.00379837813)
(1.76341927 -0.00751870935 0.00351630928)
(1.75697747 -0.00787440081 0.00324328848)
(1.75125077 -0.0074345384 0.00297877777)
(1.7460423 -0.00625676612 0.00272215629)
(1.74116353 -0.00441012593 0.00247299375)
(1.73643843 -0.00197676408 0.00223119752)
(4.39956823 0.0466869827 0.339653758)
(3.88830323 0.117720357 0.52195418)
(3.34831575 0.1612359 0.411269801)
(2.82103015 0.180135567 0.25856644)
(2.47121086 0.181402766 0.144563859)
(2.26666828 0.171512809 0.0735012805)
(2.13922818 0.155408121 0.0347879704)
(2.05690701 0.136657049 0.0160498906)
(2.00342187 0.117502103 0.00782575274)
(1.96663922 0.0991506043 0.00464325186)
(1.93888646 0.0821772786 0.00368836535)
(1.91626854 0.0668100496 0.00357032507)
(1.89692334 0.0530916687 0.003664857)
(1.8799462 0.0409709188 0.00373982617)
(1.86491417 0.0303553035 0.00373490222)
(1.85163522 0.0211411891 0.00365316544)
(1.84000371 0.0132304691 0.00351597381)
(1.82993062 0.00653894321 0.00334540771)
(1.82131633 0.000999379862 0.00315833196)
(1.81404223 -0.0034396593 0.00296569028)
(1.80797078 -0.00681669704 0.00277412546)
(1.80294564 -0.00916154865 0.00258704908)
(1.79879633 -0.0105014879 0.00240570906)
(1.79534153 -0.0108671496 0.00223018606)
(1.79239334 -0.0102981058 0.00206003142)
(1.78976209 -0.00884777109 0.00189464247)
(1.78726179 -0.00658709867 0.0017334864)
(1.78471623 -0.00360656104 0.00157623039)
(4.39821731 0.0366458761 0.340043389)
(3.87961568 0.0929742517 0.523110378)
(3.3276218 0.129549205 0.412496644)
(2.78860834 0.148160097 0.259134018)
(2.43113433 0.152907312 0.144409204)
(2.22288861 0.148067634 0.0729517071)
(2.09462993 0.137248185 0.0341041376)
(2.01361113 0.123224888 0.015319986)
(1.96285658 0.107905549 0.00705970416)
(1.92966206 0.0924705362 0.00383032441)
(1.90597494 0.0775983048 0.00281402853)
(1.88765456 0.0636532206 0.00262812012)
(1.87267147 0.0508126971 0.00266053043)
(1.86000778 0.0391477782 0.00268728525)
(1.84916914 0.028672382 0.00265104374)
(1.83992389 0.0193731415 0.00255476474)
(1.83214959 0.0112274591 0.00241816483)
(1.82575569 0.00421400256 0.00226103538)
(1.82064956 -0.00168221269 0.00209784938)
(1.81672534 -0.00646879138 0.00193768932)
(1.81385574 -0.0101467214 0.00178562086)
(1.81189386 -0.0127142668 0.00164366063)
(1.81067409 -0.0141724108 0.00151201107)
(1.81001489 -0.0145307858 0.00138994576)
(1.80972287 -0.0138138454 0.00127632776)
(1.80959828 -0.0120666081 0.00116991178)
(1.80944183 -0.00935918531 0.0010694909)
(1.80906264 -0.00578930699 0.00097398065)
(4.39732355 0.0293706677 0.340350146)
(3.87389394 0.0747919967 0.524006589)
(3.31373959 0.105399797 0.413537338)
(2.7661066 0.122596606 0.259834165)
(2.4022115 0.128957012 0.144689791)
(2.19005706 0.12729292 0.0729986767)
(2.05988831 0.120179016 0.0340849734)
(1.97851347 0.10972355 0.0152907715)
(1.92852169 0.0974818666 0.00701768037)
(1.89682959 0.0845166162 0.00375714572)
(1.87512011 0.071516972 0.00268874897)
(1.85907937 0.0589118305 0.00243505064)
(1.84656079 0.0469605632 0.0023935883)
(1.83646579 0.0358178241 0.0023487412)
(1.82824547 0.0255759074 0.00224820858)
(1.82163308 0.0162920498 0.00209738046)
(1.81648543 0.0080062603 0.00191678517)
(1.81270098 0.000752611775 0.00172601853)
(1.81018305 -0.00543484036 0.00153897475)
(1.80882297 -0.0105192358 0.00136411067)
(1.8084919 -0.0144613682 0.00120560151)
(1.8090386 -0.0172235439 0.00106467842)
(1.81028875 -0.0187749127 0.000940907026)
(1.8120468 -0.0190981896 0.000832998693)
(1.81409973 -0.0181971953 0.000739278383)
(1.81622321 -0.0161041596 0.00065796818)
(1.81818995 -0.0128856392 0.000587256841)
(1.81978004 -0.00864602109 0.00052532419)
(4.39669899 0.0238555022 0.34058761)
(3.86993532 0.0608937386 0.524693123)
(3.30405379 0.0864804269 0.414372037)
(2.75003718 0.101822085 0.260486137)
(2.38092967 0.108649437 0.145089737)
(2.1651603 0.108837662 0.0732532005)
(2.03277619 0.104211336 0.0343009359)
(1.950347 0.0963498008 0.0155077286)
(1.90018766 0.0864877816 0.00723469325)
(1.86895576 0.0755344326 0.00396093042)
(1.8481407 0.0641329496 0.00286297031)
(1.83329511 0.0527240606 0.00256550168)
(1.82218117 0.0416064469 0.00247163243)
(1.81363857 0.0309854688 0.00237136276)
(1.80707758 0.0210073212 0.00221632689)
(1.80220587 0.0117823943 0.00201426807)
(1.79886559 0.0034015968 0.00178700107)
(1.79694771 -0.00405282938 0.00155472457)
(1.79635233 -0.0105007105 0.00133177601)
(1.79696819 -0.015860652 0.00112670325)
(1.79866278 -0.0200508517 0.000943537246)
(1.80127687 -0.0229928976 0.000783429912)
(1.80462203 -0.0246179913 0.000645938451)
(1.80848128 -0.0248752577 0.000529788365)
(1.8126125 -0.0237413802 0.0004332066)
(1.81675507 -0.0212304099 0.000354159658)
(1.82064017 -0.0174021727 0.000290566062)
(1.82400436 -0.0123676687 0.000240373253)
(4.39624621 0.0195305184 0.340770776)
(3.86709008 0.0499347121 0.525220824)
(3.29706134 0.0712936968 0.415031353)
(2.73824216 0.0846627951 0.261041441)
(2.36494261 0.0912774683 0.145484912)
(2.1459942 0.0924185088 0.0735520679)
(2.01140413 0.0893795175 0.0345725571)
(1.92763319 0.0833330734 0.0157800338)
(1.87683401 0.0752423081 0.00750873314)
(1.84549385 0.0658604187 0.00422877495)
(1.82496444 0.055757413 0.00311415542)
(1.81069607 0.0453528488 0.00279035451)
(1.80037746 0.0349541092 0.00266348158)
(1.79279767 0.0247915164 0.00252677915)
(1.78733397 0.015044793 0.00233424669)
(1.78367437 0.00586227364 0.00209507791)
(1.78165107 -0.00262499284 0.00183190868)
(1.78115206 -0.0102931057 0.00156559968)
(1.78207758 -0.0170185043 0.00131099085)
(1.78431734 -0.0226751301 0.00107676357)
(1.7877369 -0.0271353977 0.000867153084)
(1.7921693 -0.0302744576 0.000683624449)
(1.79741035 -0.0319779197 0.00052597192)
(1.80321696 -0.0321525845 0.000393089343)
(1.80930964 -0.0307392967 0.000283455997)
(1.81537985 -0.027726609 0.000195336985)
(1.82110267 -0.0231632447 0.000126857718)
(1.8261548 -0.0171668163 7.59858345e-05)
(4.39590737 0.0160469509 0.340912468)
(3.86497618 0.0410710548 0.525629311)
(3.29185508 0.0588456435 0.415550589)
(2.7293541 0.0702844039 0.261497747)
(2.35267554 0.076306263 0.145834586)
(2.13098774 0.0778066549 0.0738357278)
(1.99432719 0.0757066871 0.034835467)
(1.90912128 0.0708725372 0.0160410162)
(1.85743555 0.0640464554 0.00776906629)
(1.82565166 0.0558387779 0.00448378893)
(1.80502893 0.046737257 0.00335750526)
(1.79094368 0.0371219468 0.00301612502)
(1.78102848 0.0272886742 0.00286748768)
(1.77403267 0.0174738451 0.00270666596)
(1.76930774 0.00787461949 0.00248892358)
(1.76652732 -0.0013356551 0.0022241195)
(1.76551833 -0.0099951866 0.0019353797)
(1.76617025 -0.0179441182 0.0016440157)
(1.76838846 -0.0250180823 0.00136493732)
(1.7720678 -0.0310455477 0.00110692921)
(1.77707554 -0.0358487972 0.000874406036)
(1.78323934 -0.0392490995 0.000669078771)
(1.79033877 -0.041076335 0.000491072349)
(1.79810074 -0.0411829787 0.000339723306)
(1.80620004 -0.0394616985 0.00021399365)
(1.81426671 -0.0358648506 0.000112637048)
(1.8219016 -0.0304231598 3.42156783e-05)
(1.82870005 -0.0232598822 -2.29898769e-05)
(4.39564644 0.013182056 0.341022937)
(3.86335827 0.0337584458 0.525948987)
(3.28786664 0.0484714478 0.415962012)
(2.72248326 0.0580954525 0.261869093)
(2.34305412 0.0633276986 0.14613196)
(2.11901685 0.0648048099 0.0740865314)
(1.98046143 0.0631860754 0.0350701042)
(1.89382165 0.0591093085 0.0162718685)
(1.84112357 0.0531407826 0.00799696355)
(1.80868802 0.0457662143 0.00470580004)
(1.78771653 0.0373917044 0.00356969339)
(1.77353605 0.0283489587 0.00321489964)
(1.76373997 0.0189095372 0.00305037003)
(1.75704969 0.00930249946 0.00287223517)
(1.75279947 -0.000270225742 0.00263635187)
(1.75065537 -0.00962108111 0.00235296627)
(1.75044568 -0.0185656594 0.00204552814)
(1.75206787 -0.0269135155 0.00173531138)
(1.75543889 -0.0344617639 0.00143707545)
(1.76046542 -0.0409918415 0.00115959856)
(1.76702282 -0.0462703452 0.00090740307)
(1.77493816 -0.0500549568 0.000682404323)
(1.78397666 -0.0521062694 0.000485063746)
(1.79383237 -0.0522059231 0.000315191671)
(1.80412515 -0.050180583 0.000172327821)
(1.81440708 -0.0459299205 5.58983388e-05)
(1.82418066 -0.0394549855 -3.48241287e-05)
(1.83293026 -0.030881485 -0.000100925857)
(4.39544016 0.0107887671 0.341110169)
(3.86208545 0.0276347036 0.526202855)
(3.28472725 0.039715787 0.416291899)
(2.71703615 0.0476702988 0.262172192)
(2.33533494 0.052027672 0.146381684)
(2.10927319 0.0532431202 0.0743024845)
(1.9689976 0.0517895063 0.0352735135)
(1.88096672 0.0481344605 0.0164708935)
(1.82719541 0.0427051158 0.00819189533)
(1.79397336 0.0358809734 0.00489459259)
(1.77246933 0.0279915628 0.00374974016)
(1.7579806 0.0193169512 0.00338390503)
(1.74807652 0.0100966661 0.00320679276)
(1.74146215 0.000542578961 0.00301511347)
(1.73746389 -0.00914884492 0.00276513006)
(1.7357492 -0.0187850424 0.0024674321)
(1.73615635 -0.0281666684 0.00214537491)
(1.73859948 -0.0370782456 0.00181988774)
(1.74301685 -0.0452806463 0.00150553315)
(1.7493376 -0.0525065171 0.00121099058)
(1.75745566 -0.0584601531 0.000940793846)
(1.76720663 -0.0628234983 0.000696996615)
(1.77834713 -0.0652699533 0.000480349921)
(1.79053805 -0.0654873509 0.000291134143)
(1.80333524 -0.0632103349 0.000129584265)
(1.81619255 -0.0582604829 -3.96382475e-06)
(1.8284822 -0.0505896065 -0.000109182421)
(1.83953582 -0.0403181921 -0.000186114572)
(4.395273 0.00876707879 0.341180253)
(3.86105767 0.0224520078 0.526408072)
(3.28219071 0.032260356 0.416560569)
(2.71260851 0.0386999573 0.262422083)
(2.32899697 0.0421657334 0.146591601)
(2.10117209 0.042979844 0.0744872617)
(1.95933169 0.0414795485 0.0354486563)
(1.86996544 0.0380045989 0.0166418741)
(1.81509264 0.0328719167 0.00835857617)
(1.78099047 0.0263711398 0.0050553982)
(1.75881209 0.0187617316 0.00390281338)
(1.74383986 0.0102716542 0.00352764341)
(1.73363137 0.00110331149 0.00334007022)
(1.72688566 -0.00855637835 0.00313729319)
(1.72293126 -0.0185250189 0.00287605329)
(1.72144674 -0.0286138267 0.00256687401)
(1.7222902 -0.0386167479 0.00223264174)
(1.72540409 -0.0482996532 0.00189393344)
(1.73076154 -0.0573904759 0.00156505878)
(1.7383294 -0.0655719414 0.00125450516)
(1.7480365 -0.072478917 0.00096668063)
(1.75974271 -0.0777029869 0.000703644767)
(1.77320833 -0.0808072454 0.000466368273)
(1.78806591 -0.0813542342 0.000255609582)
(1.80380009 -0.0789488287 7.24294838e-05)
(1.81974287 -0.0732953349 -8.16170716e-05)
(1.83509371 -0.064263566 -0.000204635643)
(1.84897216 -0.0519524876 -0.000294969104)
(4.39513434 0.00704731381 0.341237769)
(3.86020692 0.0180369056 0.526577338)
(3.28008884 0.0258788428 0.416783383)
(2.70892017 0.0309584099 0.262631087)
(2.32367099 0.0335586369 0.146769577)
(2.09428844 0.0338999063 0.0746460078)
(1.95101285 0.0322182233 0.0356000428)
(1.86036502 0.0287557991 0.0167896843)
(1.80437618 0.0237414096 0.00850238974)
(1.76932188 0.0173883625 0.00519390978)
(1.74635061 0.00989235997 0.0040345814)
(1.7307399 0.00142966837 0.00365137773)
(1.72004462 -0.00783840048 0.00345499133)
(1.71296695 -0.017756329 0.00324331688)
(1.70884658 -0.0281641169 0.00297313001)
(1.70738234 -0.0388863812 0.00265444694)
(1.70846348 -0.0497200594 0.00230970574)
(1.71207478 -0.0604208009 0.00195914104)
(1.71824161 -0.0706893036 0.0016166846)
(1.72698956 -0.0801593121 0.001290446)
(1.73830643 -0.0883899316 0.000984543049)
(1.75210153 -0.0948660442 0.000700875964)
(1.76816135 -0.0990116567 0.000440489881)
(1.78610439 -0.100221655 0.000204573366)
(1.80534231 -0.0979167755 -4.85740013e-06)
(1.82505947 -0.0916236568 -0.000184612236)
(1.8442268 -0.081075249 -0.000330443565)
(1.8616664 -0.0663164112 -0.000437935478)
(4.3950168 0.00557990844 0.341286117)
(3.85948616 0.0142655884 0.526719997)
(3.27830496 0.0204078224 0.416971789)
(2.70577451 0.0242789812 0.26280882)
(2.31909341 0.0260671648 0.14692237)
(2.08831252 0.0259121998 0.0747836566)
(1.94370551 0.0239723563 0.0357320642)
(1.85182115 0.0204139557 0.0169187964)
(1.79470495 0.0153941737 0.00862799289)
(1.75863618 0.00906074464 0.00531482838)
(1.7347646 0.00155077002 0.00414953127)
(1.71836876 -0.00701097002 0.00375941484)
(1.70700751 -0.0165074591 0.00355604893)
(1.69939283 -0.0268209425 0.00333752228)
(1.69488214 -0.0378231381 0.0030601476)
(1.69320328 -0.0493634016 0.00273349338)
(1.69428819 -0.0612539185 0.00237964712)
(1.69817977 -0.0732522454 0.00201834467)
(1.70497686 -0.0850419518 0.00166295381)
(1.71479133 -0.0962131702 0.00132102083)
(1.72770382 -0.106246198 0.000996143971)
(1.74371148 -0.114503164 0.000689809533)
(1.76266548 -0.120235084 0.000402885457)
(1.78420067 -0.122613681 0.000136830858)
(1.80766623 -0.120798155 -0.000105302639)
(1.83207492 -0.114044629 -0.000318158082)
(1.85609729 -0.101857225 -0.000493960295)
(1.87813362 -0.0841637777 -0.000623905353)
(4.3949152 0.00432891064 0.34132779)
(3.8588625 0.0110480163 0.526842864)
(3.27675737 0.015727444 0.417134204)
(2.70303287 0.018537612 0.262962555)
(2.31507595 0.0195856273 0.14705537)
(2.08301964 0.0189460523 0.0749043592)
(1.93716221 0.0167159249 0.0358484212)
(1.84407574 0.0130012426 0.0170328292)
(1.78581913 0.00789998118 0.00873893999)
(1.7486765 0.00150245137 0.00542147431)
(1.72380069 -0.00610910733 0.00425088393)
(1.70647457 -0.0148610154 0.00385539792)
(1.69426423 -0.0246838336 0.00364686451)
(1.68589425 -0.0355049513 0.00342301648)
(1.68074425 -0.0472386433 0.00313984645)
(1.67857783 -0.0597726755 0.00280663022)
(1.67938035 -0.0729507234 0.00244494768)
(1.68326919 -0.0865499609 0.00207388815)
(1.69044098 -0.100254069 0.00170608277)
(1.7011284 -0.113623027 0.00134828671)
(1.71555082 -0.126062835 0.00100328153)
(1.73384963 -0.136801322 0.000671777533)
(1.75600304 -0.144880231 0.000354069882)
(1.78172002 -0.149178487 5.15613487e-05)
(1.81032246 -0.148485664 -0.000231695123)
(1.84063879 -0.141645331 -0.000487578593)
(1.87095037 -0.127778409 -0.000703231237)
(1.89905631 -0.106575285 -0.000862647988)
(4.39482591 0.00326767462 0.341364584)
(3.858313 0.00831732593 0.526950834)
(3.27538907 0.0117481674 0.417276718)
(2.70059794 0.0136406633 0.263097651)
(2.31148539 0.0140332675 0.147172676)
(2.07824922 0.012947112 0.075011349)
(1.93120435 0.0104300749 0.0359519632)
(1.83694085 0.00653932129 0.0171344098)
(1.77752762 0.00132277031 0.00883753355)
(1.73925159 -0.00518064316 0.00551606436)
(1.71326854 -0.0129400227 0.00434148408)
(1.6948654 -0.0219325569 0.00394221168)
(1.68161429 -0.0321406162 0.00372974905)
(1.67225203 -0.0435450396 0.00350173656)
(1.66618134 -0.0561149099 0.00321403026)
(1.66320503 -0.0697932061 0.00287549042)
(1.66336963 -0.0844764624 0.00250707115)
(1.66688197 -0.0999869106 0.0021270738)
(1.67406239 -0.116036204 0.0017472114)
(1.68530514 -0.132180798 0.00137319004)
(1.7010277 -0.147771299 0.00100661387)
(1.72159561 -0.161902159 0.000646955143)
(1.74721128 -0.173374409 0.00029340014)
(1.77776033 -0.180693242 -5.31940832e-05)
(1.81261946 -0.182132723 -0.000387897204)
(1.85045246 -0.175909163 -0.000699207213)
(1.88905218 -0.160500617 -0.000966902764)
(1.92535981 -0.135128146 -0.00116294017)
(4.39474643 0.00237589033 0.341397751)
(3.85782189 0.00602246696 0.527047341)
(3.27416095 0.00840129537 0.417403629)
(2.69840291 0.00951570265 0.263217929)
(2.30822999 0.00934703245 0.147277254)
(2.07389048 0.00787291604 0.0751069669)
(1.92570872 0.00510153865 0.036044625)
(1.83028678 0.00104959869 0.0172250232)
(1.76969853 -0.00427811802 0.00892517148)
(1.73023089 -0.0108882197 0.00560083127)
(1.70303946 -0.0187977446 0.00442366915)
(1.6834106 -0.0280353851 0.00402154279)
(1.66891791 -0.0386397469 0.00380600812)
(1.658306 -0.050653514 0.00357481233)
(1.65099683 -0.0641142307 0.00328358354)
(1.64683032 -0.0790400378 0.00294067064)
(1.64591633 -0.0954075929 0.0025662952)
(1.6485615 -0.113119328 0.00217782678)
(1.65523363 -0.131957203 0.00178584658)
(1.66653271 -0.151520646 0.00139470656)
(1.68314694 -0.171148403 0.00100443541)
(1.70577402 -0.189828565 0.000612753437)
(1.73498608 -0.206109966 0.000217129421)
(1.77101841 -0.218043401 -0.000182699262)
(1.81347035 -0.223202221 -0.000581083729)
(1.86093625 -0.218860689 -0.000962440917)
(1.91064631 -0.202421725 -0.00129396302)
(1.95831408 -0.172190227 -0.00152612312)
(4.39467507 0.00163744595 0.341428124)
(3.85737874 0.00412287368 0.52713469)
(3.27304734 0.00563194821 0.417517842)
(2.69640409 0.0061042852 0.263325984)
(2.30525015 0.00547535672 0.147371111)
(2.06987239 0.00368846361 0.0751926751)
(1.92059738 0.000719398086 0.0361272363)
(1.82403292 -0.00344931946 0.0173054282)
(1.76225371 -0.00884878766 0.00900365453)
(1.7215419 -0.015525418 0.00567774332)
(1.69304586 -0.0235416182 0.00449868027)
(1.67204419 -0.0329777662 0.00409427021)
(1.65610393 -0.043931909 0.00387632967)
(1.64396814 -0.0565164315 0.00364264372)
(1.63506765 -0.070851407 0.00334852558)
(1.6292695 -0.0870523965 0.0030017169)
(1.62673994 -0.105209 0.00262157089)
(1.62788587 -0.125349628 0.00222432044)
(1.63333774 -0.147386942 0.00181910997)
(1.64394217 -0.171037654 0.0014085516)
(1.66073908 -0.195710932 0.00099067582)
(1.68489565 -0.22036327 0.000561028605)
(1.7175613 -0.243328083 0.000115022756)
(1.75959958 -0.262149564 -0.000348914933)
(1.81114696 -0.273487596 -0.000824547562)
(1.87099461 -0.273230932 -0.00129155717)
(1.93582973 -0.256995407 -0.00169627406)
(1.99967572 -0.221329359 -0.00195385186)
(4.3946108 0.00103880609 0.341456209)
(3.85697723 0.00258445629 0.527214322)
(3.27203287 0.00339368973 0.417621182)
(2.69457577 0.0033561624 0.263423433)
(2.30251195 0.00237290811 0.147455391)
(2.06615594 0.000361218012 0.0752688449)
(1.91582949 -0.00272992987 0.0362000912)
(1.81814227 -0.00694483854 0.0173771495)
(1.75516517 -0.0123432065 0.00907472522)
(1.71316731 -0.0190065939 0.00574774295)
(1.68328164 -0.0270393403 0.00456712383)
(1.66076967 -0.0365715479 0.00416082108)
(1.64318002 -0.0477618655 0.00394085762)
(1.62923919 -0.0607981469 0.00370497418)
(1.61836887 -0.0758954608 0.00340807264)
(1.61044278 -0.0932890021 0.00305713161)
(1.60566271 -0.113217426 0.00267037721)
(1.60451933 -0.135890344 0.00226250268)
(1.60780239 -0.161431179 0.00184067548)
(1.61662966 -0.189783343 0.00140514143)
(1.63246825 -0.220564813 0.000951319964)
(1.65711354 -0.252855791 0.000472358334)
(1.6925716 -0.284911077 -3.75355406e-05)
(1.74076162 -0.31381098 -0.000578445923)
(1.80291873 -0.335120106 -0.00113742289)
(1.87863864 -0.34275659 -0.00168377611)
(1.96435464 -0.329357019 -0.00213143431)
(2.05197268 -0.288075039 -0.00237672325)
(4.39455313 0.000567619238 0.341482313)
(3.85661431 0.00137643403 0.527287061)
(3.2711103 0.00164437526 0.417714623)
(2.69290657 0.0012247441 0.263511038)
(2.30000163 -4.64060143e-06 0.147530192)
(2.06272729 -0.00214477823 0.0753355415)
(1.91139642 -0.00526682887 0.0362645748)
(1.81261755 -0.00943386539 0.0174418037)
(1.74845012 -0.0147287138 0.00913910434)
(1.70514219 -0.0212623962 0.00581125054)
(1.67380274 -0.0291752047 0.00462926438)
(1.64966479 -0.0386422944 0.00422121694)
(1.6302431 -0.0498805379 0.0039992717)
(1.61422726 -0.0631546215 0.00376102419)
(1.60100335 -0.0787822295 0.00346078715)
(1.59041859 -0.0971360698 0.00310446497)
(1.58267094 -0.11863807 0.00270864176)
(1.57829256 -0.143738362 0.00228567881)
(1.57819578 -0.172867234 0.00183963797)
(1.58375587 -0.206341501 0.00136695183)
(1.59690855 -0.244197819 0.000858903353)
(1.62022694 -0.28591589 0.000305396381)
(1.65690801 -0.329988787 -0.000299283129)
(1.71053666 -0.373306626 -0.000946005594)
(1.78443387 -0.410406352 -0.00159379339)
(1.88028774 -0.432678384 -0.00216479397)
(1.99534768 -0.428040228 -0.00246374152)
(2.11956684 -0.382885421 -0.00244214917)
(4.39450224 0.000211720032 0.341506884)
(3.85629008 0.00046913652 0.527353547)
(3.27027917 0.000342706606 0.417798474)
(2.69139583 -0.000337728577 0.263588613)
(2.29772037 -0.00170570839 0.147595575)
(2.05959411 -0.00387262404 0.0753940308)
(1.9073181 -0.00692165982 0.0363222509)
(1.80749478 -0.0109287171 0.0174999521)
(1.74216544 -0.0159936303 0.00919705204)
(1.69755046 -0.0222487437 0.0058683802)
(1.66472601 -0.0298618033 0.0046850316)
(1.63888403 -0.0390446746 0.00427515208)
(1.6174878 -0.0500647343 0.00405095507)
(1.59916534 -0.0632576458 0.00380971304)
(1.58323292 -0.0790421406 0.00350483366)
(1.56946465 -0.097935504 0.00314059565)
(1.5579933 -0.120566103 0.00273100191)
(1.54931576 -0.147676119 0.00228455273)
(1.54437927 -0.180101636 0.0017998634)
(1.54473363 -0.218706492 0.00126626612)
(1.55274129 -0.264228909 0.000666928986)
(1.57182364 -0.316973815 -1.52446829e-05)
(1.60667578 -0.376248241 -0.000787354488)
(1.66330324 -0.439439473 -0.0016255872)
(1.74861532 -0.500644804 -0.00245530424)
(1.86893764 -0.548669347 -0.00313203909)
(2.02568898 -0.565232816 -0.00321071761)
(2.21057881 -0.52385977 -0.00286630944)
(4.39445915 -3.98897293e-05 0.341530705)
(3.85600781 -0.000167367239 0.527414452)
(3.26954345 -0.000555366684 0.417872921)
(2.69005064 -0.0013833596 0.263656578)
(2.29568242 -0.00278510306 0.147652702)
(2.0567822 -0.00487471298 0.0754457241)
(1.90363603 -0.00774000931 0.0363735407)
(1.80283624 -0.0114638575 0.0175516826)
(1.73640154 -0.0161549779 0.00924851636)
(1.69051923 -0.021957202 0.00591894632)
(1.65622456 -0.0290544776 0.00473411006)
(1.62865646 -0.0376824898 0.00432216346)
(1.60520913 -0.0481445232 0.00409521876)
(1.58442277 -0.0608313642 0.00384995779)
(1.56550477 -0.0762471122 0.00353841236)
(1.54809868 -0.0950415349 0.00316237615)
(1.53218912 -0.118048112 0.00273170928)
(1.51812161 -0.146324526 0.00224829768)
(1.50672374 -0.181186546 0.00170068069)
(1.49953128 -0.22421352 0.001063853)
(1.49914086 -0.27717816 0.000302784771)
(1.50970855 -0.341804074 -0.000617181738)
(1.53757889 -0.419162562 -0.00170646874)
(1.59194518 -0.508512606 -0.00292253662)
(1.6853214 -0.604990146 -0.00418341861)
(1.83258606 -0.695533006 -0.00535574042)
(2.04745881 -0.754314416 -0.00610436188)
(2.33660083 -0.727349686 -0.00761325509)
(4.39442332 -0.000198126311 0.341552626)
(3.8557677 -0.00056526465 0.527468294)
(3.26890845 -0.00109808335 0.417937422)
(2.68888462 -0.0019692907 0.263715353)
(2.29391149 -0.00330591188 0.147702226)
(2.05432863 -0.00521700323 0.0754907579)
(1.90040606 -0.0077878459 0.0364182675)
(1.79872342 -0.0111011792 0.0175967089)
(1.73127426 -0.0152657362 0.00929315039)
(1.68420948 -0.0204256036 0.00596256261)
(1.6485178 -0.0267669141 0.00477608933)
(1.61927612 -0.0345315908 0.00436180428)
(1.59379516 -0.0440366911 0.00413152913)
(1.57050391 -0.055700416 0.00388103327)
(1.54846311 -0.0700782356 0.00356038484)
(1.52712505 -0.0879125447 0.00316774649)
(1.50622989 -0.110199682 0.00270657834)
(1.48582145 -0.138278626 0.0021677483)
(1.46637943 -0.173944094 0.00152128797)
(1.44909442 -0.219579549 0.000712198005)
(1.43635492 -0.278284144 -0.000339912895)
(1.43256029 -0.353901683 -0.00172743898)
(1.44541228 -0.450820981 -0.00351915523)
(1.48784897 -0.573043556 -0.0057207217)
(1.58076021 -0.721440918 -0.00833897296)
(1.7537179 -0.886953443 -0.0111834382)