/*--------------------------------*- C++ -*----------------------------------*\
| =========                 |                                                 |
| \\      /  F ield         | foam-extend: Open Source CFD                    |
|  \\    /   O peration     | Version:     4.1                                |
|   \\  /    A nd           | Web:         http://www.foam-extend.org         |
|    \\/     M anipulation  |                                                 |
\*---------------------------------------------------------------------------*/
FoamFile
{
    version     2.0;
    format      ascii;
    class       volScalarField::DimensionedInternalField;
    location    "0.3";
    object      V0;
}
// * * * * * * * * * * * * * * * * * * * * * * * * * * * * * * * * * * * * * //

dimensions      [0 3 0 0 0 0 0];

value           nonuniform List<scalar> 
35840
(
1.00000008e-06
1.00000025e-06
1.00000042e-06
1.00000061e-06
1.00000082e-06
1.00000105e-06
1.00000133e-06
1.00000164e-06
1.00000201e-06
1.00000244e-06
1.00000293e-06
1.0000035e-06
1.00000415e-06
1.00000487e-06
1.00000569e-06
1.00000658e-06
1.00000756e-06
1.00000861e-06
1.00000972e-06
1.00001088e-06
1.00001206e-06
1.00001324e-06
1.0000144e-06
1.00001551e-06
1.00001653e-06
1.00001744e-06
1.0000182e-06
1.00001879e-06
1.00000008e-06
1.00000025e-06
1.00000043e-06
1.00000062e-06
1.00000083e-06
1.00000108e-06
1.00000136e-06
1.00000168e-06
1.00000206e-06
1.0000025e-06
1.00000301e-06
1.0000036e-06
1.00000427e-06
1.00000503e-06
1.00000588e-06
1.00000681e-06
1.00000783e-06
1.00000893e-06
1.0000101e-06
1.00001132e-06
1.00001257e-06
1.00001382e-06
1.00001505e-06
1.00001622e-06
1.00001731e-06
1.00001827e-06
1.00001908e-06
1.00001972e-06
1.00000009e-06
1.00000027e-06
1.00000046e-06
1.00000066e-06
1.00000088e-06
1.00000114e-06
1.00000144e-06
1.0000018e-06
1.00000221e-06
1.00000269e-06
1.00000324e-06
1.00000389e-06
1.00000463e-06
1.00000547e-06
1.00000641e-06
1.00000746e-06
1.0000086e-06
1.00000985e-06
1.00001117e-06
1.00001256e-06
1.00001398e-06
1.00001542e-06
1.00001684e-06
1.00001819e-06
1.00001945e-06
1.00002057e-06
1.00002151e-06
1.00002225e-06
1.0000001e-06
1.0000003e-06
1.0000005e-06
1.00000072e-06
1.00000098e-06
1.00000127e-06
1.0000016e-06
1.000002e-06
1.00000247e-06
1.00000302e-06
1.00000366e-06
1.00000441e-06
1.00000527e-06
1.00000626e-06
1.00000737e-06
1.00000862e-06
1.00001e-06
1.00001149e-06
1.0000131e-06
1.00001479e-06
1.00001654e-06
1.00001831e-06
1.00002007e-06
1.00002175e-06
1.00002332e-06
1.00002472e-06
1.00002591e-06
1.00002684e-06
1.00000011e-06
1.00000033e-06
1.00000057e-06
1.00000082e-06
1.00000111e-06
1.00000144e-06
1.00000183e-06
1.0000023e-06
1.00000285e-06
1.0000035e-06
1.00000427e-06
1.00000517e-06
1.00000622e-06
1.00000742e-06
1.0000088e-06
1.00001034e-06
1.00001206e-06
1.00001394e-06
1.00001597e-06
1.00001813e-06
1.00002037e-06
1.00002265e-06
1.00002492e-06
1.00002711e-06
1.00002915e-06
1.00003099e-06
1.00003255e-06
1.00003377e-06
1.00000013e-06
1.00000038e-06
1.00000065e-06
1.00000095e-06
1.00000128e-06
1.00000167e-06
1.00000214e-06
1.00000269e-06
1.00000335e-06
1.00000414e-06
1.00000508e-06
1.00000619e-06
1.00000749e-06
1.000009e-06
1.00001072e-06
1.00001268e-06
1.00001488e-06
1.0000173e-06
1.00001992e-06
1.00002273e-06
1.00002567e-06
1.00002867e-06
1.00003168e-06
1.00003459e-06
1.00003733e-06
1.00003979e-06
1.00004189e-06
1.00004354e-06
1.00000015e-06
1.00000044e-06
1.00000076e-06
1.0000011e-06
1.00000149e-06
1.00000196e-06
1.00000251e-06
1.00000318e-06
1.00000399e-06
1.00000496e-06
1.00000612e-06
1.0000075e-06
1.00000913e-06
1.00001103e-06
1.00001322e-06
1.00001573e-06
1.00001856e-06
1.00002171e-06
1.00002515e-06
1.00002884e-06
1.00003274e-06
1.00003675e-06
1.00004077e-06
1.00004471e-06
1.00004841e-06
1.00005175e-06
1.00005461e-06
1.00005686e-06
1.00000017e-06
1.00000052e-06
1.00000088e-06
1.00000129e-06
1.00000175e-06
1.00000231e-06
1.00000297e-06
1.00000378e-06
1.00000477e-06
1.00000596e-06
1.0000074e-06
1.00000912e-06
1.00001117e-06
1.00001357e-06
1.00001638e-06
1.00001961e-06
1.00002327e-06
1.00002738e-06
1.0000319e-06
1.00003679e-06
1.00004197e-06
1.00004734e-06
1.00005277e-06
1.0000581e-06
1.00006314e-06
1.00006771e-06
1.00007162e-06
1.00007471e-06
1.0000002e-06
1.0000006e-06
1.00000103e-06
1.0000015e-06
1.00000205e-06
1.00000271e-06
1.00000352e-06
1.0000045e-06
1.0000057e-06
1.00000716e-06
1.00000894e-06
1.00001109e-06
1.00001366e-06
1.00001671e-06
1.00002029e-06
1.00002444e-06
1.00002918e-06
1.00003454e-06
1.00004048e-06
1.00004695e-06
1.00005386e-06
1.00006107e-06
1.0000684e-06
1.00007563e-06
1.00008251e-06
1.00008876e-06
1.00009414e-06
1.0000984e-06
1.00000023e-06
1.0000007e-06
1.00000119e-06
1.00000175e-06
1.0000024e-06
1.00000318e-06
1.00000414e-06
1.00000533e-06
1.00000678e-06
1.00000858e-06
1.00001077e-06
1.00001344e-06
1.00001666e-06
1.00002051e-06
1.00002505e-06
1.00003037e-06
1.0000365e-06
1.00004347e-06
1.00005126e-06
1.00005982e-06
1.00006902e-06
1.00007869e-06
1.00008858e-06
1.00009839e-06
1.00010778e-06
1.00011635e-06
1.00012375e-06
1.00012963e-06
1.00000026e-06
1.0000008e-06
1.00000138e-06
1.00000203e-06
1.00000279e-06
1.00000372e-06
1.00000486e-06
1.00000627e-06
1.00000803e-06
1.00001021e-06
1.00001291e-06
1.0000162e-06
1.00002021e-06
1.00002504e-06
1.00003079e-06
1.00003757e-06
1.00004545e-06
1.00005449e-06
1.00006467e-06
1.00007594e-06
1.00008816e-06
1.0001011e-06
1.00011443e-06
1.00012774e-06
1.00014054e-06
1.0001523e-06
1.00016247e-06
1.00017059e-06
1.0000003e-06
1.00000092e-06
1.00000158e-06
1.00000233e-06
1.00000322e-06
1.0000043e-06
1.00000565e-06
1.00000734e-06
1.00000945e-06
1.00001208e-06
1.00001536e-06
1.0000194e-06
1.00002436e-06
1.00003037e-06
1.0000376e-06
1.0000462e-06
1.00005627e-06
1.00006792e-06
1.00008117e-06
1.00009596e-06
1.00011212e-06
1.00012938e-06
1.0001473e-06
1.00016532e-06
1.00018276e-06
1.00019887e-06
1.00021288e-06
1.00022407e-06
1.00000034e-06
1.00000104e-06
1.00000179e-06
1.00000265e-06
1.00000367e-06
1.00000494e-06
1.00000651e-06
1.00000851e-06
1.00001102e-06
1.00001417e-06
1.00001813e-06
1.00002304e-06
1.00002912e-06
1.00003656e-06
1.00004557e-06
1.00005638e-06
1.00006917e-06
1.0000841e-06
1.00010123e-06
1.00012053e-06
1.00014182e-06
1.00016476e-06
1.00018878e-06
1.00021312e-06
1.00023685e-06
1.0002589e-06
1.00027817e-06
1.00029362e-06
1.00000038e-06
1.00000117e-06
1.00000202e-06
1.00000299e-06
1.00000416e-06
1.0000056e-06
1.00000744e-06
1.00000976e-06
1.00001271e-06
1.00001646e-06
1.00002119e-06
1.00002712e-06
1.00003449e-06
1.0000436e-06
1.00005475e-06
1.00006823e-06
1.00008434e-06
1.00010332e-06
1.00012531e-06
1.00015035e-06
1.00017824e-06
1.00020858e-06
1.00024066e-06
1.00027345e-06
1.00030568e-06
1.00033583e-06
1.00036231e-06
1.00038364e-06
1.00000043e-06
1.0000013e-06
1.00000224e-06
1.00000333e-06
1.00000465e-06
1.0000063e-06
1.0000084e-06
1.00001108e-06
1.00001452e-06
1.00001891e-06
1.00002449e-06
1.00003156e-06
1.00004044e-06
1.00005149e-06
1.00006512e-06
1.00008178e-06
1.00010188e-06
1.0001258e-06
1.00015382e-06
1.00018605e-06
1.00022235e-06
1.00026227e-06
1.00030491e-06
1.00034894e-06
1.0003926e-06
1.00043377e-06
1.00047016e-06
1.00049959e-06
1.00000047e-06
1.00000143e-06
1.00000247e-06
1.00000367e-06
1.00000514e-06
1.000007e-06
1.00000937e-06
1.00001243e-06
1.00001638e-06
1.00002145e-06
1.00002797e-06
1.00003629e-06
1.00004682e-06
1.00006007e-06
1.00007659e-06
1.00009696e-06
1.00012178e-06
1.00015162e-06
1.00018697e-06
1.0002281e-06
1.000275e-06
1.00032716e-06
1.00038354e-06
1.00044242e-06
1.00050141e-06
1.00055755e-06
1.00060753e-06
1.00064817e-06
1.00000051e-06
1.00000155e-06
1.00000268e-06
1.000004e-06
1.00000562e-06
1.00000767e-06
1.00001032e-06
1.00001376e-06
1.00001823e-06
1.00002403e-06
1.00003153e-06
1.00004118e-06
1.00005351e-06
1.00006919e-06
1.00008896e-06
1.00011357e-06
1.00014382e-06
1.00018062e-06
1.00022473e-06
1.0002767e-06
1.00033672e-06
1.00040436e-06
1.00047843e-06
1.00055679e-06
1.00063626e-06
1.00071271e-06
1.00078139e-06
1.00083757e-06
1.00000054e-06
1.00000165e-06
1.00000286e-06
1.00000429e-06
1.00000604e-06
1.00000829e-06
1.0000112e-06
1.00001501e-06
1.00002e-06
1.00002652e-06
1.00003502e-06
1.00004606e-06
1.00006031e-06
1.00007859e-06
1.0001018e-06
1.00013101e-06
1.00016747e-06
1.00021232e-06
1.00026666e-06
1.00033155e-06
1.00040755e-06
1.00049445e-06
1.00059102e-06
1.00069471e-06
1.00080142e-06
1.00090546e-06
1.00099997e-06
1.00107787e-06
1.00000057e-06
1.00000174e-06
1.00000302e-06
1.00000452e-06
1.0000064e-06
1.00000881e-06
1.00001197e-06
1.00001611e-06
1.00002159e-06
1.0000288e-06
1.00003827e-06
1.00005067e-06
1.00006683e-06
1.00008772e-06
1.00011452e-06
1.00014869e-06
1.00019182e-06
1.00024553e-06
1.0003116e-06
1.0003916e-06
1.00048666e-06
1.00059706e-06
1.00072182e-06
1.00085816e-06
1.00100098e-06
1.0011426e-06
1.00127314e-06
1.00138186e-06
1.00000059e-06
1.00000179e-06
1.00000312e-06
1.00000469e-06
1.00000666e-06
1.00000921e-06
1.00001255e-06
1.00001699e-06
1.00002288e-06
1.00003069e-06
1.00004105e-06
1.00005471e-06
1.00007265e-06
1.00009608e-06
1.0001265e-06
1.00016571e-06
1.00021572e-06
1.00027888e-06
1.0003578e-06
1.00045488e-06
1.00057204e-06
1.00071047e-06
1.00086988e-06
1.00104779e-06
1.00123836e-06
1.00143158e-06
1.00161328e-06
1.00176686e-06
1.0000006e-06
1.00000182e-06
1.00000317e-06
1.00000477e-06
1.0000068e-06
1.00000943e-06
1.00001291e-06
1.00001755e-06
1.00002375e-06
1.00003205e-06
1.00004311e-06
1.00005784e-06
1.00007734e-06
1.00010307e-06
1.00013682e-06
1.00018078e-06
1.00023764e-06
1.00031048e-06
1.0004027e-06
1.00051802e-06
1.00066e-06
1.00083098e-06
1.001032e-06
1.00126213e-06
1.00151581e-06
1.00178082e-06
1.00203731e-06
1.00225897e-06
1.00000059e-06
1.0000018e-06
1.00000315e-06
1.00000475e-06
1.00000678e-06
1.00000944e-06
1.00001297e-06
1.00001772e-06
1.0000241e-06
1.00003268e-06
1.00004422e-06
1.00005969e-06
1.00008036e-06
1.00010788e-06
1.00014436e-06
1.00019244e-06
1.0002554e-06
1.00033719e-06
1.00044238e-06
1.00057614e-06
1.00074388e-06
1.00095074e-06
1.00120107e-06
1.0014965e-06
1.00183375e-06
1.00220073e-06
1.00257121e-06
1.00290271e-06
1.00000057e-06
1.00000174e-06
1.00000305e-06
1.00000461e-06
1.0000066e-06
1.00000921e-06
1.00001271e-06
1.00001742e-06
1.0000238e-06
1.00003244e-06
1.00004412e-06
1.0000599e-06
1.00008116e-06
1.00010972e-06
1.00014794e-06
1.00019888e-06
1.00026641e-06
1.00035537e-06
1.00047167e-06
1.00062223e-06
1.00081507e-06
1.00105969e-06
1.00136601e-06
1.00174164e-06
1.00219011e-06
1.00270559e-06
1.00325911e-06
1.00378203e-06
1.00000054e-06
1.00000164e-06
1.00000287e-06
1.00000434e-06
1.00000623e-06
1.00000872e-06
1.00001207e-06
1.00001661e-06
1.00002278e-06
1.00003119e-06
1.00004262e-06
1.00005817e-06
1.00007927e-06
1.00010785e-06
1.00014645e-06
1.00019843e-06
1.00026816e-06
1.0003613e-06
1.00048508e-06
1.0006486e-06
1.0008636e-06
1.00114473e-06
1.00150974e-06
1.00198024e-06
1.00257773e-06
1.00331573e-06
1.00417833e-06
1.00506177e-06
1.00000048e-06
1.00000149e-06
1.0000026e-06
1.00000395e-06
1.00000567e-06
1.00000797e-06
1.00001105e-06
1.00001526e-06
1.000021e-06
1.00002885e-06
1.0000396e-06
1.00005429e-06
1.00007435e-06
1.00010173e-06
1.000139e-06
1.00018967e-06
1.0002584e-06
1.00035143e-06
1.00047713e-06
1.00064678e-06
1.00087587e-06
1.00118587e-06
1.00160683e-06
1.00218235e-06
1.00297482e-06
1.004053e-06
1.00545529e-06
1.00705089e-06
1.00000042e-06
1.00000129e-06
1.00000225e-06
1.00000343e-06
1.00000494e-06
1.00000694e-06
1.00000966e-06
1.00001337e-06
1.00001845e-06
1.00002543e-06
1.00003501e-06
1.00004819e-06
1.00006627e-06
1.0000911e-06
1.00012513e-06
1.00017175e-06
1.00023559e-06
1.00032303e-06
1.00044294e-06
1.00060805e-06
1.00083715e-06
1.00115922e-06
1.00162082e-06
1.00229883e-06
1.00332256e-06
1.0049001e-06
1.00723994e-06
1.01020008e-06
1.00000034e-06
1.00000105e-06
1.00000184e-06
1.00000279e-06
1.00000403e-06
1.00000568e-06
1.00000791e-06
1.00001097e-06
1.00001518e-06
1.00002098e-06
1.00002896e-06
1.00003998e-06
1.00005516e-06
1.00007609e-06
1.00010493e-06
1.00014467e-06
1.00019949e-06
1.00027523e-06
1.00038033e-06
1.00052744e-06
1.00073652e-06
1.00104145e-06
1.00150389e-06
1.00224202e-06
1.00348319e-06
1.00564777e-06
1.0094925e-06
1.01449191e-06
1.00000025e-06
1.00000077e-06
1.00000136e-06
1.00000207e-06
1.00000298e-06
1.00000421e-06
1.00000588e-06
1.00000816e-06
1.00001131e-06
1.00001565e-06
1.00002165e-06
1.00002994e-06
1.00004141e-06
1.00005726e-06
1.00007917e-06
1.00010949e-06
1.00015148e-06
1.00020981e-06
1.00029132e-06
1.00040651e-06
1.00057266e-06
1.0008209e-06
1.0012129e-06
1.00188113e-06
1.00311901e-06
1.00551017e-06
1.00962501e-06
1.02156324e-06
1.00000024e-06
1.00000072e-06
1.00000123e-06
1.00000177e-06
1.00000237e-06
1.00000306e-06
1.00000385e-06
1.00000477e-06
1.00000584e-06
1.00000708e-06
1.00000852e-06
1.00001016e-06
1.00001203e-06
1.00001415e-06
1.0000165e-06
1.00001911e-06
1.00002194e-06
1.00002499e-06
1.00002821e-06
1.00003157e-06
1.000035e-06
1.00003844e-06
1.0000418e-06
1.00004501e-06
1.00004797e-06
1.0000506e-06
1.00005281e-06
1.00005453e-06
1.00000024e-06
1.00000074e-06
1.00000125e-06
1.0000018e-06
1.00000242e-06
1.00000313e-06
1.00000394e-06
1.00000488e-06
1.00000598e-06
1.00000727e-06
1.00000875e-06
1.00001045e-06
1.0000124e-06
1.00001459e-06
1.00001705e-06
1.00001977e-06
1.00002273e-06
1.00002593e-06
1.00002932e-06
1.00003286e-06
1.00003648e-06
1.00004012e-06
1.00004368e-06
1.00004709e-06
1.00005023e-06
1.00005303e-06
1.00005538e-06
1.00005722e-06
1.00000026e-06
1.00000078e-06
1.00000132e-06
1.00000191e-06
1.00000257e-06
1.00000332e-06
1.00000419e-06
1.00000521e-06
1.0000064e-06
1.0000078e-06
1.00000942e-06
1.00001129e-06
1.00001343e-06
1.00001586e-06
1.0000186e-06
1.00002164e-06
1.00002497e-06
1.00002858e-06
1.00003242e-06
1.00003644e-06
1.00004058e-06
1.00004476e-06
1.00004886e-06
1.0000528e-06
1.00005644e-06
1.00005969e-06
1.00006243e-06
1.00006458e-06
1.00000028e-06
1.00000086e-06
1.00000146e-06
1.0000021e-06
1.00000283e-06
1.00000367e-06
1.00000465e-06
1.0000058e-06
1.00000716e-06
1.00000876e-06
1.00001062e-06
1.0000128e-06
1.0000153e-06
1.00001816e-06
1.0000214e-06
1.00002502e-06
1.00002901e-06
1.00003336e-06
1.00003802e-06
1.00004293e-06
1.00004801e-06
1.00005315e-06
1.00005824e-06
1.00006313e-06
1.00006768e-06
1.00007175e-06
1.00007519e-06
1.00007789e-06
1.00000032e-06
1.00000097e-06
1.00000164e-06
1.00000238e-06
1.00000321e-06
1.00000418e-06
1.00000532e-06
1.00000666e-06
1.00000826e-06
1.00001016e-06
1.00001239e-06
1.00001501e-06
1.00001805e-06
1.00002154e-06
1.00002553e-06
1.00003001e-06
1.000035e-06
1.00004046e-06
1.00004635e-06
1.0000526e-06
1.00005911e-06
1.00006573e-06
1.00007231e-06
1.00007867e-06
1.00008461e-06
1.00008993e-06
1.00009446e-06
1.00009801e-06
1.00000037e-06
1.00000111e-06
1.00000189e-06
1.00000274e-06
1.00000372e-06
1.00000485e-06
1.0000062e-06
1.0000078e-06
1.00000973e-06
1.00001202e-06
1.00001475e-06
1.00001797e-06
1.00002174e-06
1.00002611e-06
1.00003112e-06
1.00003681e-06
1.00004317e-06
1.00005019e-06
1.00005782e-06
1.00006596e-06
1.00007448e-06
1.00008321e-06
1.00009193e-06
1.0001004e-06
1.00010834e-06
1.00011548e-06
1.00012157e-06
1.00012636e-06
1.00000043e-06
1.00000129e-06
1.00000219e-06
1.00000319e-06
1.00000434e-06
1.00000569e-06
1.0000073e-06
1.00000924e-06
1.00001158e-06
1.00001439e-06
1.00001776e-06
1.00002176e-06
1.00002648e-06
1.000032e-06
1.00003838e-06
1.00004566e-06
1.00005387e-06
1.000063e-06
1.00007298e-06
1.00008371e-06
1.000095e-06
1.00010664e-06
1.00011833e-06
1.00012974e-06
1.00014049e-06
1.00015019e-06
1.00015848e-06
1.00016501e-06
1.0000005e-06
1.0000015e-06
1.00000256e-06
1.00000373e-06
1.00000509e-06
1.00000669e-06
1.00000863e-06
1.00001098e-06
1.00001383e-06
1.00001729e-06
1.00002147e-06
1.00002646e-06
1.0000324e-06
1.00003939e-06
1.00004753e-06
1.0000569e-06
1.00006754e-06
1.00007945e-06
1.00009257e-06
1.00010676e-06
1.0001218e-06
1.0001374e-06
1.00015316e-06
1.00016861e-06
1.00018323e-06
1.00019649e-06
1.00020784e-06
1.00021682e-06
1.00000058e-06
1.00000174e-06
1.00000298e-06
1.00000436e-06
1.00000596e-06
1.00000788e-06
1.0000102e-06
1.00001305e-06
1.00001653e-06
1.00002078e-06
1.00002594e-06
1.00003218e-06
1.00003964e-06
1.00004849e-06
1.00005888e-06
1.00007092e-06
1.00008469e-06
1.00010023e-06
1.00011747e-06
1.00013626e-06
1.00015632e-06
1.00017724e-06
1.00019852e-06
1.00021949e-06
1.00023944e-06
1.0002576e-06
1.0002732e-06
1.00028556e-06
1.00000067e-06
1.00000202e-06
1.00000346e-06
1.00000508e-06
1.00000697e-06
1.00000924e-06
1.00001203e-06
1.00001545e-06
1.00001968e-06
1.00002489e-06
1.00003126e-06
1.000039e-06
1.00004835e-06
1.00005951e-06
1.00007271e-06
1.00008814e-06
1.00010593e-06
1.00012616e-06
1.00014877e-06
1.0001736e-06
1.00020031e-06
1.00022836e-06
1.00025707e-06
1.00028555e-06
1.00031277e-06
1.00033766e-06
1.00035912e-06
1.00037618e-06
1.00000077e-06
1.00000233e-06
1.000004e-06
1.00000588e-06
1.00000809e-06
1.00001078e-06
1.0000141e-06
1.00001821e-06
1.00002331e-06
1.00002964e-06
1.00003745e-06
1.00004702e-06
1.00005865e-06
1.00007266e-06
1.00008936e-06
1.00010904e-06
1.00013191e-06
1.00015813e-06
1.00018769e-06
1.0002204e-06
1.00025586e-06
1.0002934e-06
1.00033208e-06
1.0003707e-06
1.00040784e-06
1.00044195e-06
1.00047149e-06
1.00049503e-06
1.00000088e-06
1.00000267e-06
1.00000458e-06
1.00000675e-06
1.00000933e-06
1.00001249e-06
1.00001641e-06
1.00002129e-06
1.00002742e-06
1.00003507e-06
1.00004457e-06
1.00005631e-06
1.00007068e-06
1.00008814e-06
1.00010913e-06
1.00013406e-06
1.00016331e-06
1.00019711e-06
1.00023555e-06
1.00027847e-06
1.00032538e-06
1.00037546e-06
1.00042746e-06
1.00047975e-06
1.00053036e-06
1.00057709e-06
1.00061773e-06
1.00065021e-06
1.000001e-06
1.00000303e-06
1.0000052e-06
1.00000769e-06
1.00001066e-06
1.00001433e-06
1.0000189e-06
1.00002468e-06
1.00003198e-06
1.00004113e-06
1.0000526e-06
1.00006688e-06
1.0000845e-06
1.00010609e-06
1.00013226e-06
1.00016363e-06
1.00020075e-06
1.00024406e-06
1.00029376e-06
1.00034977e-06
1.00041156e-06
1.00047811e-06
1.00054781e-06
1.00061844e-06
1.00068728e-06
1.00075124e-06
1.00080713e-06
1.00085195e-06
1.00000112e-06
1.0000034e-06
1.00000585e-06
1.00000867e-06
1.00001206e-06
1.00001626e-06
1.00002158e-06
1.00002833e-06
1.0000369e-06
1.00004778e-06
1.0000615e-06
1.00007869e-06
1.0001001e-06
1.00012654e-06
1.00015889e-06
1.00019802e-06
1.00024477e-06
1.00029983e-06
1.00036366e-06
1.0004363e-06
1.00051724e-06
1.00060526e-06
1.00069831e-06
1.00079345e-06
1.00088692e-06
1.00097435e-06
1.00105114e-06
1.00111298e-06
1.00000124e-06
1.00000377e-06
1.00000651e-06
1.00000967e-06
1.00001349e-06
1.00001828e-06
1.00002437e-06
1.00003216e-06
1.00004213e-06
1.00005487e-06
1.00007108e-06
1.0000916e-06
1.00011736e-06
1.00014942e-06
1.00018899e-06
1.00023734e-06
1.00029567e-06
1.00036507e-06
1.00044636e-06
1.00053987e-06
1.00064521e-06
1.00076099e-06
1.00088466e-06
1.00101235e-06
1.00113893e-06
1.00125825e-06
1.00136371e-06
1.00144898e-06
1.00000136e-06
1.00000414e-06
1.00000716e-06
1.00001066e-06
1.00001493e-06
1.00002031e-06
1.00002719e-06
1.00003607e-06
1.00004752e-06
1.00006226e-06
1.00008118e-06
1.00010532e-06
1.00013588e-06
1.00017433e-06
1.00022228e-06
1.00028139e-06
1.00035339e-06
1.00043998e-06
1.00054254e-06
1.00066188e-06
1.0007979e-06
1.00094917e-06
1.00111263e-06
1.00128329e-06
1.0014542e-06
1.00161676e-06
1.00176146e-06
1.00187904e-06
1.00000147e-06
1.00000449e-06
1.00000777e-06
1.0000116e-06
1.0000163e-06
1.00002227e-06
1.00002995e-06
1.00003993e-06
1.00005289e-06
1.00006973e-06
1.00009151e-06
1.0001195e-06
1.00015528e-06
1.0002008e-06
1.00025818e-06
1.00032957e-06
1.00041735e-06
1.00052411e-06
1.00065207e-06
1.00080283e-06
1.00097687e-06
1.00117294e-06
1.00138755e-06
1.00161447e-06
1.00184444e-06
1.0020655e-06
1.00226394e-06
1.00242613e-06
1.00000157e-06
1.00000479e-06
1.00000831e-06
1.00001244e-06
1.00001754e-06
1.00002406e-06
1.00003251e-06
1.00004357e-06
1.00005804e-06
1.00007696e-06
1.00010163e-06
1.00013366e-06
1.00017503e-06
1.00022807e-06
1.00029541e-06
1.00038018e-06
1.00048595e-06
1.00061606e-06
1.00077367e-06
1.00096181e-06
1.00118209e-06
1.00143381e-06
1.00171333e-06
1.00201319e-06
1.0023214e-06
1.00262147e-06
1.00289365e-06
1.0031177e-06
1.00000165e-06
1.00000504e-06
1.00000875e-06
1.00001313e-06
1.00001858e-06
1.00002558e-06
1.00003473e-06
1.00004677e-06
1.00006264e-06
1.00008357e-06
1.00011106e-06
1.00014706e-06
1.00019394e-06
1.00025457e-06
1.00033233e-06
1.00043147e-06
1.00055658e-06
1.00071236e-06
1.00090392e-06
1.00113579e-06
1.00141109e-06
1.00173055e-06
1.00209108e-06
1.00248442e-06
1.00289561e-06
1.00330233e-06
1.00367621e-06
1.00398679e-06
1.00000171e-06
1.00000521e-06
1.00000906e-06
1.00001362e-06
1.00001933e-06
1.00002672e-06
1.00003643e-06
1.0000493e-06
1.00006639e-06
1.00008908e-06
1.00011912e-06
1.00015877e-06
1.00021084e-06
1.00027882e-06
1.00036708e-06
1.00048083e-06
1.00062587e-06
1.00080901e-06
1.00103775e-06
1.00131888e-06
1.00165785e-06
1.00205772e-06
1.00251724e-06
1.00302861e-06
1.0035744e-06
1.00412532e-06
1.00464085e-06
1.00507446e-06
1.00000173e-06
1.00000528e-06
1.00000919e-06
1.00001385e-06
1.00001972e-06
1.00002736e-06
1.00003746e-06
1.00005093e-06
1.00006893e-06
1.000093e-06
1.00012512e-06
1.00016784e-06
1.00022445e-06
1.00029911e-06
1.00039702e-06
1.00052453e-06
1.00068939e-06
1.00090054e-06
1.00116762e-06
1.00150124e-06
1.00191134e-06
1.00240397e-06
1.00298116e-06
1.0036388e-06
1.00435918e-06
1.00510585e-06
1.00582201e-06
1.00643535e-06
1.00000171e-06
1.00000523e-06
1.00000913e-06
1.00001378e-06
1.00001968e-06
1.00002739e-06
1.00003765e-06
1.00005142e-06
1.00006993e-06
1.00009484e-06
1.00012832e-06
1.00017321e-06
1.00023319e-06
1.00031306e-06
1.00041888e-06
1.00055831e-06
1.00074081e-06
1.00097776e-06
1.00128213e-06
1.00166857e-06
1.00215188e-06
1.00274565e-06
1.00346019e-06
1.0042968e-06
1.00524164e-06
1.00625572e-06
1.00726302e-06
1.00814962e-06
1.00000165e-06
1.00000506e-06
1.00000884e-06
1.00001338e-06
1.00001915e-06
1.00002673e-06
1.00003688e-06
1.00005056e-06
1.00006907e-06
1.00009413e-06
1.00012804e-06
1.00017382e-06
1.00023551e-06
1.00031836e-06
1.00042924e-06
1.00057693e-06
1.0007726e-06
1.00103011e-06
1.00136625e-06
1.00180033e-06
1.00235412e-06
1.00305247e-06
1.00391915e-06
1.00496834e-06
1.00619861e-06
1.00757978e-06
1.00902152e-06
1.01034461e-06
1.00000155e-06
1.00000476e-06
1.00000831e-06
1.0000126e-06
1.00001808e-06
1.00002532e-06
1.00003504e-06
1.00004821e-06
1.00006612e-06
1.00009051e-06
1.00012369e-06
1.0001688e-06
1.00023002e-06
1.00031292e-06
1.00042487e-06
1.00057554e-06
1.0007775e-06
1.00104687e-06
1.00140406e-06
1.00187424e-06
1.00248887e-06
1.00328534e-06
1.0043052e-06
1.00559289e-06
1.00718091e-06
1.00906715e-06
1.01116958e-06
1.01322134e-06
1.00000141e-06
1.00000431e-06
1.00000755e-06
1.00001146e-06
1.00001647e-06
1.00002312e-06
1.00003208e-06
1.00004428e-06
1.00006094e-06
1.00008373e-06
1.00011491e-06
1.00015753e-06
1.00021575e-06
1.00029515e-06
1.00040323e-06
1.00055005e-06
1.00074898e-06
1.00101774e-06
1.00137977e-06
1.00186594e-06
1.00251701e-06
1.00338634e-06
1.00454233e-06
1.00607314e-06
1.00808578e-06
1.01065895e-06
1.01376023e-06
1.01703382e-06
1.00000122e-06
1.00000373e-06
1.00000654e-06
1.00000995e-06
1.00001433e-06
1.00002015e-06
1.00002803e-06
1.00003879e-06
1.00005354e-06
1.00007379e-06
1.00010161e-06
1.00013983e-06
1.0001923e-06
1.00026429e-06
1.00036294e-06
1.00049799e-06
1.00068265e-06
1.00093494e-06
1.00127957e-06
1.00175083e-06
1.00239723e-06
1.00328886e-06
1.0045284e-06
1.00626514e-06
1.00871194e-06
1.01214107e-06
1.0166692e-06
1.02180312e-06
1.00000099e-06
1.00000304e-06
1.00000533e-06
1.00000811e-06
1.0000117e-06
1.00001648e-06
1.00002297e-06
1.00003185e-06
1.00004406e-06
1.00006087e-06
1.00008405e-06
1.000116e-06
1.00016004e-06
1.00022073e-06
1.00030432e-06
1.0004194e-06
1.00057785e-06
1.00079613e-06
1.0010975e-06
1.00151558e-06
1.00210083e-06
1.00293275e-06
1.00414236e-06
1.00594987e-06
1.00870681e-06
1.0129071e-06
1.01914727e-06
1.02612827e-06
1.00000073e-06
1.00000224e-06
1.00000394e-06
1.000006e-06
1.00000866e-06
1.00001222e-06
1.00001705e-06
1.00002368e-06
1.00003281e-06
1.00004542e-06
1.00006283e-06
1.00008689e-06
1.00012014e-06
1.0001661e-06
1.00022961e-06
1.00031736e-06
1.00043867e-06
1.0006066e-06
1.00083982e-06
1.00116592e-06
1.00162764e-06
1.00229572e-06
1.00329585e-06
1.00486322e-06
1.00743165e-06
1.01163889e-06
1.01751365e-06
1.0329585e-06
1.00000037e-06
1.00000113e-06
1.00000191e-06
1.00000275e-06
1.00000369e-06
1.00000476e-06
1.000006e-06
1.00000743e-06
1.0000091e-06
1.00001103e-06
1.00001326e-06
1.00001583e-06
1.00001874e-06
1.00002203e-06
1.00002571e-06
1.00002976e-06
1.00003417e-06
1.00003892e-06
1.00004394e-06
1.00004917e-06
1.00005451e-06
1.00005987e-06
1.00006511e-06
1.00007011e-06
1.00007472e-06
1.00007881e-06
1.00008225e-06
1.00008494e-06
1.00000038e-06
1.00000115e-06
1.00000195e-06
1.00000281e-06
1.00000377e-06
1.00000487e-06
1.00000613e-06
1.00000761e-06
1.00000932e-06
1.00001132e-06
1.00001362e-06
1.00001628e-06
1.00001931e-06
1.00002273e-06
1.00002656e-06
1.00003079e-06
1.00003541e-06
1.00004039e-06
1.00004567e-06
1.00005117e-06
1.00005682e-06
1.00006248e-06
1.00006804e-06
1.00007334e-06
1.00007824e-06
1.00008259e-06
1.00008626e-06
1.00008913e-06
1.0000004e-06
1.00000122e-06
1.00000206e-06
1.00000298e-06
1.000004e-06
1.00000517e-06
1.00000653e-06
1.00000812e-06
1.00000997e-06
1.00001214e-06
1.00001466e-06
1.00001758e-06
1.00002092e-06
1.00002471e-06
1.00002897e-06
1.0000337e-06
1.00003889e-06
1.00004451e-06
1.00005049e-06
1.00005676e-06
1.00006321e-06
1.00006971e-06
1.00007611e-06
1.00008223e-06
1.00008791e-06
1.00009297e-06
1.00009724e-06
1.00010058e-06
1.00000044e-06
1.00000134e-06
1.00000227e-06
1.00000328e-06
1.00000441e-06
1.00000572e-06
1.00000724e-06
1.00000904e-06
1.00001115e-06
1.00001364e-06
1.00001655e-06
1.00001993e-06
1.00002383e-06
1.00002829e-06
1.00003333e-06
1.00003897e-06
1.00004519e-06
1.00005196e-06
1.00005922e-06
1.00006686e-06
1.00007477e-06
1.00008279e-06
1.00009071e-06
1.00009832e-06
1.00010541e-06
1.00011175e-06
1.00011711e-06
1.00012131e-06
1.0000005e-06
1.00000151e-06
1.00000256e-06
1.00000371e-06
1.00000501e-06
1.00000651e-06
1.00000828e-06
1.00001038e-06
1.00001287e-06
1.00001582e-06
1.0000193e-06
1.00002337e-06
1.00002811e-06
1.00003356e-06
1.00003976e-06
1.00004675e-06
1.00005451e-06
1.00006302e-06
1.0000722e-06
1.00008193e-06
1.00009206e-06
1.00010237e-06
1.00011262e-06
1.00012253e-06
1.00013178e-06
1.00014007e-06
1.00014712e-06
1.00015265e-06
1.00000057e-06
1.00000173e-06
1.00000294e-06
1.00000427e-06
1.00000579e-06
1.00000755e-06
1.00000965e-06
1.00001216e-06
1.00001515e-06
1.00001873e-06
1.00002298e-06
1.00002799e-06
1.00003386e-06
1.00004067e-06
1.00004848e-06
1.00005733e-06
1.00006724e-06
1.00007818e-06
1.00009006e-06
1.00010274e-06
1.00011601e-06
1.00012961e-06
1.00014319e-06
1.00015637e-06
1.00016874e-06
1.00017987e-06
1.00018935e-06
1.0001968e-06
1.00000066e-06
1.00000201e-06
1.00000342e-06
1.00000497e-06
1.00000676e-06
1.00000886e-06
1.00001137e-06
1.00001439e-06
1.00001803e-06
1.00002241e-06
1.00002766e-06
1.00003389e-06
1.00004125e-06
1.00004984e-06
1.00005978e-06
1.00007112e-06
1.00008391e-06
1.00009813e-06
1.00011367e-06
1.00013037e-06
1.00014797e-06
1.0001661e-06
1.00018431e-06
1.00020207e-06
1.00021881e-06
1.00023392e-06
1.00024683e-06
1.00025701e-06
1.00000077e-06
1.00000234e-06
1.00000398e-06
1.00000581e-06
1.00000792e-06
1.00001043e-06
1.00001344e-06
1.0000171e-06
1.00002155e-06
1.00002694e-06
1.00003343e-06
1.00004122e-06
1.00005047e-06
1.00006136e-06
1.00007404e-06
1.00008863e-06
1.0001052e-06
1.00012375e-06
1.00014417e-06
1.00016627e-06
1.00018971e-06
1.000214e-06
1.00023854e-06
1.00026261e-06
1.00028539e-06
1.00030603e-06
1.00032372e-06
1.0003377e-06
1.0000009e-06
1.00000272e-06
1.00000464e-06
1.00000679e-06
1.00000929e-06
1.00001227e-06
1.00001589e-06
1.00002032e-06
1.00002574e-06
1.00003237e-06
1.00004041e-06
1.00005012e-06
1.00006174e-06
1.00007553e-06
1.0000917e-06
1.00011045e-06
1.00013191e-06
1.00015612e-06
1.00018297e-06
1.00021223e-06
1.00024347e-06
1.00027606e-06
1.00030919e-06
1.00034186e-06
1.00037293e-06
1.0004012e-06
1.0004255e-06
1.00044476e-06
1.00000104e-06
1.00000315e-06
1.00000539e-06
1.00000791e-06
1.00001085e-06
1.00001439e-06
1.00001873e-06
1.00002407e-06
1.00003066e-06
1.00003876e-06
1.00004868e-06
1.00006075e-06
1.0000753e-06
1.00009269e-06
1.00011325e-06
1.00013728e-06
1.000165e-06
1.0001965e-06
1.00023172e-06
1.00027039e-06
1.00031198e-06
1.00035568e-06
1.00040039e-06
1.00044473e-06
1.00048713e-06
1.00052589e-06
1.00055932e-06
1.00058588e-06
1.00000119e-06
1.00000363e-06
1.00000623e-06
1.00000916e-06
1.00001261e-06
1.00001679e-06
1.00002195e-06
1.00002836e-06
1.00003631e-06
1.00004617e-06
1.00005834e-06
1.00007324e-06
1.00009136e-06
1.00011318e-06
1.00013919e-06
1.00016983e-06
1.00020546e-06
1.00024629e-06
1.00029232e-06
1.00034327e-06
1.0003985e-06
1.00045696e-06
1.00051721e-06
1.00057735e-06
1.00063518e-06
1.0006883e-06
1.0007343e-06
1.00077094e-06
1.00000137e-06
1.00000416e-06
1.00000714e-06
1.00001051e-06
1.00001453e-06
1.00001946e-06
1.00002555e-06
1.00003317e-06
1.0000427e-06
1.00005462e-06
1.00006942e-06
1.0000877e-06
1.00011009e-06
1.00013729e-06
1.00016997e-06
1.00020881e-06
1.00025435e-06
1.000307e-06
1.00036687e-06
1.00043371e-06
1.00050677e-06
1.00058476e-06
1.00066574e-06
1.00074715e-06
1.00082595e-06
1.00089871e-06
1.00096198e-06
1.00101254e-06
1.00000155e-06
1.00000472e-06
1.0000081e-06
1.00001197e-06
1.00001661e-06
1.00002231e-06
1.00002944e-06
1.00003845e-06
1.0000498e-06
1.00006407e-06
1.00008193e-06
1.00010416e-06
1.00013162e-06
1.00016524e-06
1.00020599e-06
1.00025485e-06
1.00031267e-06
1.00038012e-06
1.00045752e-06
1.00054475e-06
1.00064097e-06
1.0007446e-06
1.00085311e-06
1.00096307e-06
1.00107024e-06
1.00116979e-06
1.00125677e-06
1.00132652e-06
1.00000174e-06
1.00000529e-06
1.00000912e-06
1.0000135e-06
1.00001878e-06
1.00002533e-06
1.00003361e-06
1.00004412e-06
1.00005747e-06
1.00007441e-06
1.00009579e-06
1.00012257e-06
1.00015591e-06
1.00019709e-06
1.00024747e-06
1.00030842e-06
1.00038123e-06
1.00046698e-06
1.00056637e-06
1.00067948e-06
1.00080551e-06
1.00094255e-06
1.0010874e-06
1.00123547e-06
1.0013809e-06