/*--------------------------------*- C++ -*----------------------------------*\
| =========                 |                                                 |
| \\      /  F ield         | foam-extend: Open Source CFD                    |
|  \\    /   O peration     | Version:     4.1                                |
|   \\  /    A nd           | Web:         http://www.foam-extend.org         |
|    \\/     M anipulation  |                                                 |
\*---------------------------------------------------------------------------*/
FoamFile
{
    version     2.0;
    format      ascii;
    class       volVectorField;
    location    "0.15";
    object      cellMotionU;
}
// * * * * * * * * * * * * * * * * * * * * * * * * * * * * * * * * * * * * * //

dimensions      [0 1 -1 0 0 0 0];

internalField   nonuniform List<vector> 
35840
(
(-1.28829008e-21 1.45351869e-09 -2.4498458e-22)
(-3.88071655e-21 4.37842647e-09 -7.37966129e-22)
(-6.56510728e-21 7.40705423e-09 -1.24843277e-21)
(-9.46107071e-21 1.06742953e-08 -1.79912703e-21)
(-1.26863058e-20 1.43128947e-08 -2.41242736e-21)
(-1.63583681e-20 1.84554339e-08 -3.1106835e-21)
(-2.05957461e-20 2.3235542e-08 -3.91642055e-21)
(-2.55180495e-20 2.87881084e-08 -4.85237418e-21)
(-3.12451542e-20 3.52483177e-08 -5.94132719e-21)
(-3.78951649e-20 4.27493525e-08 -7.20572124e-21)
(-4.55810841e-20 5.14186382e-08 -8.66702268e-21)
(-5.44061202e-20 6.13725528e-08 -1.03448297e-20)
(-6.44576404e-20 7.27096076e-08 -1.22557218e-20)
(-7.57998782e-20 8.55022248e-08 -1.44118735e-20)
(-8.84656441e-20 9.97873901e-08 -1.68194789e-20)
(-1.02447455e-19 1.1555665e-07 -1.94770666e-20)
(-1.1768868e-19 1.32746126e-07 -2.23738201e-20)
(-1.34075486e-19 1.51227434e-07 -2.54880502e-20)
(-1.51430507e-19 1.70800544e-07 -2.87859985e-20)
(-1.6950926e-19 1.91189739e-07 -3.22211621e-20)
(-1.88000304e-19 2.12043791e-07 -3.5734332e-20)
(-2.06529984e-19 2.3294132e-07 -3.92545027e-20)
(-2.24672332e-19 2.53401948e-07 -4.2700758e-20)
(-2.419642e-19 2.72903373e-07 -4.59851513e-20)
(-2.57925196e-19 2.90903851e-07 -4.90164919e-20)
(-2.7208137e-19 3.06868893e-07 -5.1704839e-20)
(-2.8399106e-19 3.20300428e-07 -5.39664036e-20)
(-2.93271036e-19 3.30766274e-07 -5.57285005e-20)
(-3.88131083e-21 4.3790973e-09 -7.38079137e-22)
(-1.16889016e-20 1.31879977e-08 -2.22278572e-21)
(-1.97701549e-20 2.23055333e-08 -3.75952285e-21)
(-2.848803e-20 3.21410489e-08 -5.41730365e-21)
(-3.81991795e-20 4.30967896e-08 -7.26393889e-21)
(-4.92597177e-20 5.55743867e-08 -9.36713227e-21)
(-6.20286962e-20 6.99787715e-08 -1.17951396e-20)
(-7.68688353e-20 8.67189985e-08 -1.46169054e-20)
(-9.41440686e-20 1.06205477e-07 -1.7901594e-20)
(-1.14213491e-19 1.28843146e-07 -2.17174351e-20)
(-1.37421363e-19 1.55020205e-07 -2.6129821e-20)
(-1.64082962e-19 1.85092163e-07 -3.11986133e-20)
(-1.94466275e-19 2.19361192e-07 -3.69746605e-20)
(-2.28769861e-19 2.58051165e-07 -4.3495588e-20)
(-2.67097608e-19 3.01279194e-07 -5.07810014e-20)
(-3.09431632e-19 3.49025066e-07 -5.88273393e-20)
(-3.55605132e-19 4.01100633e-07 -6.7602722e-20)
(-4.05277557e-19 4.57121812e-07 -7.70422469e-20)
(-4.57914946e-19 5.16486411e-07 -8.7044269e-20)
(-5.12778541e-19 5.78361288e-07 -9.7468261e-20)
(-5.68924767e-19 6.41682338e-07 -1.08134837e-19)
(-6.2521925e-19 7.05170289e-07 -1.18828438e-19)
(-6.80366579e-19 7.67364281e-07 -1.29303012e-19)
(-7.32956231e-19 8.26673644e-07 -1.39290749e-19)
(-7.8152329e-19 8.81446368e-07 -1.48513613e-19)
(-8.24620767e-19 9.30050664e-07 -1.56697069e-19)
(-8.60898634e-19 9.70964082e-07 -1.63585055e-19)
(-8.89183531e-19 1.00286339e-06 -1.68955086e-19)
(-6.56729967e-21 7.40952945e-09 -1.24884967e-21)
(-1.97737411e-20 2.23095828e-08 -3.7602048e-21)
(-3.34403414e-20 3.77285813e-08 -6.3590463e-21)
(-4.81901338e-20 5.43691816e-08 -9.16383604e-21)
(-6.46351427e-20 7.29216437e-08 -1.22909366e-20)
(-8.33870209e-20 9.40757952e-08 -1.58566309e-20)
(-1.05063625e-19 1.18528439e-07 -1.99783689e-20)
(-1.30290809e-19 1.46985374e-07 -2.47751041e-20)
(-1.59698688e-19 1.80157181e-07 -3.03665786e-20)
(-1.93911657e-19 2.18747972e-07 -3.68714183e-20)
(-2.33531529e-19 2.63436373e-07 -4.44039215e-20)
(-2.79113369e-19 3.14848282e-07 -5.30694579e-20)
(-3.31133967e-19 3.73521315e-07 -6.29584698e-20)
(-3.89953397e-19 4.39861459e-07 -7.41391624e-20)
(-4.55770873e-19 5.14093295e-07 -8.66491134e-20)
(-5.28576966e-19 5.96206114e-07 -1.004862e-19)
(-6.08105296e-19 6.85899439e-07 -1.15599433e-19)
(-6.93787801e-19 7.82532587e-07 -1.31880483e-19)
(-7.847186e-19 8.85083918e-07 -1.49156853e-19)
(-8.79632035e-19 9.92126074e-07 -1.67187753e-19)
(-9.76900482e-19 1.10182352e-06 -1.8566374e-19)
(-1.07455687e-18 1.21195794e-06 -2.0421105e-19)
(-1.17034523e-18 1.31998526e-06 -2.22401251e-19)
(-1.2618003e-18 1.42312537e-06 -2.39766385e-19)
(-1.34635383e-18 1.51848206e-06 -2.55819174e-19)
(-1.42146224e-18 1.60318695e-06 -2.70077219e-19)
(-1.48474659e-18 1.67455728e-06 -2.82089517e-19)
(-1.53413363e-18 1.73025505e-06 -2.91463164e-19)
(-9.46559421e-21 1.06794035e-08 -1.7999872e-21)
(-2.84973546e-20 3.21515808e-08 -5.41907679e-21)
(-4.81972408e-20 5.43772113e-08 -9.16518745e-21)
(-6.94831257e-20 7.83914661e-08 -1.32128372e-20)
(-9.32575798e-20 1.05212283e-07 -1.77336243e-20)
(-1.20424937e-19 1.35859569e-07 -2.28994664e-20)
(-1.51902251e-19 1.71367547e-07 -2.88846783e-20)
(-1.88623108e-19 2.12789054e-07 -3.58666886e-20)
(-2.31533172e-19 2.61190514e-07 -4.40251824e-20)
(-2.81576326e-19 3.17636319e-07 -5.3539457e-20)
(-3.39670391e-19 3.83161444e-07 -6.45837911e-20)
(-4.06671624e-19 4.58731424e-07 -7.73206853e-20)
(-4.83327732e-19 5.45189364e-07 -9.18919176e-20)
(-5.70219874e-19 6.4319054e-07 -1.08407512e-19)
(-6.67695221e-19 7.53126347e-07 -1.26932922e-19)
(-7.75793044e-19 8.75040953e-07 -1.47474993e-19)
(-8.94168864e-19 1.00854576e-06 -1.69967579e-19)
(-1.0220229e-18 1.15273872e-06 -1.94257992e-19)
(-1.15804055e-18 1.30613723e-06 -2.20095768e-19)
(-1.30035376e-18 1.46663456e-06 -2.47125412e-19)
(-1.44653231e-18 1.63149006e-06 -2.74884859e-19)
(-1.59361326e-18 1.79736238e-06 -3.02811174e-19)
(-1.73817449e-18 1.96039239e-06 -3.30254615e-19)
(-1.87645447e-18 2.11633826e-06 -3.56501439e-19)
(-2.00451535e-18 2.26075937e-06 -3.8080489e-19)
(-2.11844104e-18 2.38923965e-06 -4.02422735e-19)
(-2.21455606e-18 2.49763435e-06 -4.20658697e-19)
(-2.28964702e-18 2.58231979e-06 -4.34904309e-19)
(-1.26937388e-20 1.43212906e-08 -2.41384077e-21)
(-3.82159256e-20 4.31157094e-08 -7.26712321e-21)
(-6.46520851e-20 7.29407926e-08 -1.22941582e-20)
(-9.32684447e-20 1.05224568e-07 -1.77356902e-20)
(-1.25312751e-19 1.41374253e-07 -2.38289328e-20)
(-1.620402e-19 1.82805446e-07 -3.08124906e-20)
(-2.04730786e-19 2.30961669e-07 -3.89296461e-20)
(-2.54696658e-19 2.87322671e-07 -4.84297457e-20)
(-3.13277868e-19 3.5339963e-07 -5.95673735e-20)
(-3.81824808e-19 4.30715349e-07 -7.25989922e-20)
(-4.61665699e-19 5.20767603e-07 -8.77767392e-20)
(-5.54057765e-19 6.24974073e-07 -1.05339121e-19)
(-6.60121322e-19 7.44598026e-07 -1.25498462e-19)
(-7.80757058e-19 8.80655027e-07 -1.48425164e-19)
(-9.16548303e-19 1.03380273e-06 -1.74229132e-19)
(-1.06765213e-18 1.20421807e-06 -2.02939091e-19)
(-1.23368553e-18 1.3914689e-06 -2.34481007e-19)
(-1.4136155e-18 1.59439007e-06 -2.68657288e-19)
(-1.60566448e-18 1.81097681e-06 -3.05128949e-19)
(-1.80724451e-18 2.03831047e-06 -3.43403268e-19)
(-2.01493413e-18 2.27253257e-06 -3.82829618e-19)
(-2.22451156e-18 2.50888215e-06 -4.22605971e-19)
(-2.431054e-18 2.74180789e-06 -4.61797959e-19)
(-2.62910799e-18 2.96516011e-06 -4.99371344e-19)
(-2.81292747e-18 3.17245931e-06 -5.34237247e-19)
(-2.97676764e-18 3.35722747e-06 -5.65307819e-19)
(-3.11521335e-18 3.51335829e-06 -5.91558313e-19)
(-3.22351356e-18 3.63549433e-06 -6.12090195e-19)
(-1.63692206e-20 1.84676958e-08 -3.11274711e-21)
(-4.9285401e-20 5.56034131e-08 -9.37201593e-21)
(-8.34163228e-20 9.41089253e-08 -1.58622025e-20)
(-1.20450187e-19 1.35888131e-07 -2.29042676e-20)
(-1.62055543e-19 1.82822809e-07 -3.08154078e-20)
(-2.09919621e-19 2.36815779e-07 -3.99163303e-20)
(-2.65774993e-19 2.9982095e-07 -5.0536302e-20)
(-3.31412809e-19 3.73858248e-07 -6.30156437e-20)
(-4.08680273e-19 4.61010764e-07 -7.77052189e-20)
(-4.99459816e-19 5.63401278e-07 -9.49624392e-20)
(-6.05627526e-19 6.83145374e-07 -1.15143318e-19)
(-7.28988445e-19 8.22278474e-07 -1.38590127e-19)
(-8.71187076e-19 9.82654915e-07 -1.65614338e-19)
(-1.03359274e-18 1.16581866e-06 -1.96474802e-19)
(-1.21716157e-18 1.37284763e-06 -2.31351502e-19)
(-1.42227966e-18 1.60417689e-06 -2.70315777e-19)
(-1.6485957e-18 1.85940986e-06 -3.13298586e-19)
(-1.8948552e-18 2.13713143e-06 -3.60059169e-19)
(-2.15875264e-18 2.43474124e-06 -4.10157183e-19)
(-2.43682133e-18 2.74832956e-06 -4.6293211e-19)
(-2.72438273e-18 3.07262025e-06 -5.17494022e-19)
(-3.01557652e-18 3.40100464e-06 -5.72729701e-19)
(-3.3034884e-18 3.72568581e-06 -6.27327309e-19)
(-3.58038527e-18 4.03794371e-06 -6.79821295e-19)
(-3.83805516e-18 4.32851856e-06 -7.28656997e-19)
(-4.06823564e-18 4.58809379e-06 -7.72271733e-19)
(-4.26309918e-18 4.80784333e-06 -8.09186422e-19)
(-4.41575218e-18 4.97999414e-06 -8.38099514e-19)
(-2.06104999e-20 2.32522171e-08 -3.91922594e-21)
(-6.20648972e-20 7.00196982e-08 -1.1802023e-20)
(-1.05108195e-19 1.1857885e-07 -1.99868435e-20)
(-1.51946131e-19 1.714172e-07 -2.88930216e-20)
(-2.04766903e-19 2.31002555e-07 -3.89365131e-20)
(-2.65796833e-19 2.99845683e-07 -5.05404543e-20)
(-3.37340348e-19 3.80545388e-07 -6.41427326e-20)
(-4.21802651e-19 4.75814068e-07 -8.02002557e-20)
(-5.21691346e-19 5.88479548e-07 -9.9189208e-20)
(-6.39593381e-19 7.21459074e-07 -1.21600604e-19)
(-7.78123831e-19 8.77701549e-07 -1.47930471e-19)
(-9.39842471e-19 1.06009343e-06 -1.78663912e-19)
(-1.12713493e-18 1.27132472e-06 -2.14252422e-19)
(-1.34205676e-18 1.51371304e-06 -2.55084182e-19)
(-1.58614157e-18 1.78898732e-06 -3.0144756e-19)
(-1.86017838e-18 2.09803666e-06 -3.53488811e-19)
(-2.16396836e-18 2.44063608e-06 -4.11165993e-19)
(-2.4960775e-18 2.81516762e-06 -4.74202218e-19)
(-2.85360793e-18 3.21836258e-06 -5.42042632e-19)
(-3.23201684e-18 3.64509746e-06 -6.13820614e-19)
(-3.6250161e-18 4.08828085e-06 -6.88339446e-19)
(-4.02458601e-18 4.53886914e-06 -7.64075758e-19)
(-4.42113232e-18 4.98604365e-06 -8.39210101e-19)
(-4.80380423e-18 5.41756928e-06 -9.11687893e-19)
(-5.16097415e-18 5.82033546e-06 -9.79310633e-19)
(-5.4808574e-18 6.18105484e-06 -1.03985312e-18)
(-5.75222627e-18 6.48706826e-06 -1.09119798e-18)
(-5.96515224e-18 6.72718144e-06 -1.13147491e-18)
(-2.55370697e-20 2.88096128e-08 -4.85599069e-21)
(-7.69172661e-20 8.67737698e-08 -1.4626114e-20)
(-1.30354627e-19 1.47057576e-07 -2.47872381e-20)
(-1.88691836e-19 2.12866842e-07 -3.58797557e-20)
(-2.54761581e-19 2.87396179e-07 -4.84420891e-20)
(-3.31465997e-19 3.73918485e-07 -6.30257554e-20)
(-4.21835014e-19 4.75850727e-07 -8.02064078e-20)
(-5.29064041e-19 5.9679642e-07 -1.0059093e-19)
(-6.56523576e-19 7.40556464e-07 -1.24819175e-19)
(-8.07735706e-19 9.11102617e-07 -1.53559378e-19)
(-9.8631352e-19 1.11250916e-06 -1.87496507e-19)
(-1.1958562e-18 1.34883453e-06 -2.27312156e-19)
(-1.43979423e-18 1.62394677e-06 -2.73654964e-19)
(-1.72118053e-18 1.94128788e-06 -3.27100763e-19)
(-2.0424272e-18 2.30357696e-06 -3.88102442e-19)
(-2.40499268e-18 2.71245743e-06 -4.56930522e-19)
(-2.80903188e-18 3.16810251e-06 -5.33606841e-19)
(-3.25303033e-18 3.6688028e-06 -6.17835478e-19)
(-3.73345387e-18 4.21057137e-06 -7.08936937e-19)
(-4.24445544e-18 4.78681347e-06 -8.05793552e-19)
(-4.77768878e-18 5.38811659e-06 -9.06815494e-19)
(-5.32228169e-18 6.00222069e-06 -1.00993731e-18)
(-5.86501714e-18 6.61422251e-06 -1.11265384e-18)
(-6.39075538e-18 7.20705173e-06 -1.21210158e-18)
(-6.88310502e-18 7.76222758e-06 -1.3051864e-18)
(-7.32531606e-18 8.26086562e-06 -1.38875238e-18)
(-7.70132927e-18 8.68486061e-06 -1.45977894e-18)
(-7.99688081e-18 9.0181317e-06 -1.51558734e-18)
(-3.12681691e-20 3.52743498e-08 -5.94570305e-21)
(-9.42060839e-20 1.06275636e-07 -1.79133849e-20)
(-1.59787754e-19 1.80257968e-07 -3.03835124e-20)
(-2.31636836e-19 2.61307852e-07 -4.40448909e-20)
(-3.13384606e-19 3.5352048e-07 -5.95876657e-20)
(-4.08780393e-19 4.61124144e-07 -7.7724252e-20)
(-5.2177274e-19 5.88571738e-07 -9.92046804e-20)
(-6.56572367e-19 7.40611733e-07 -1.24828449e-19)
(-8.17675514e-19 9.22314488e-07 -1.55448807e-19)
(-1.00984209e-18 1.13904757e-06 -1.91968401e-19)
(-1.23802831e-18 1.39639968e-06 -2.35326216e-19)
(-1.50725809e-18 1.70003567e-06 -2.86472853e-19)
(-1.82242572e-18 2.05547379e-06 -3.46332684e-19)
(-2.18802009e-18 2.46777471e-06 -4.15751152e-19)
(-2.60776797e-18 2.94113918e-06 -4.9542674e-19)
(-3.08419926e-18 3.47841779e-06 -5.85828296e-19)
(-3.6181483e-18 4.0805487e-06 -6.87100523e-19)
(-4.20821773e-18 4.74595326e-06 -7.98962797e-19)
(-4.8502469e-18 5.46993694e-06 -9.20609462e-19)
(-5.53684378e-18 6.24416193e-06 -1.0506229e-18)
(-6.25705454e-18 7.05627499e-06 -1.1869134e-18)
(-6.99625289e-18 7.88978315e-06 -1.32670127e-18)
(-7.73632852e-18 8.72426655e-06 -1.46655574e-18)
(-8.45623491e-18 9.53599633e-06 -1.60250146e-18)
(-9.13292005e-18 1.02989839e-05 -1.73019622e-18)
(-9.74260974e-18 1.09864277e-05 -1.84517327e-18)
(-1.02623499e-17 1.15724515e-05 -1.94313027e-18)
(-1.06716546e-17 1.20339618e-05 -2.02023576e-18)
(-3.79192668e-20 4.2776638e-08 -7.21030335e-21)
(-1.14287675e-19 1.28927113e-07 -2.17315386e-20)
(-1.94035813e-19 2.18888475e-07 -3.68950221e-20)
(-2.81732125e-19 3.1781265e-07 -5.35690756e-20)
(-3.81994577e-19 4.30907528e-07 -7.26312653e-20)
(-4.99633736e-19 5.63598174e-07 -9.49954997e-20)
(-6.39752504e-19 7.21639243e-07 -1.21630849e-19)
(-8.07859977e-19 9.11243352e-07 -1.53582997e-19)
(-1.00991579e-18 1.13913104e-06 -1.91982406e-19)
(-1.25230836e-18 1.4125061e-06 -2.38039834e-19)
(-1.54179051e-18 1.73898296e-06 -2.93033663e-19)
(-1.88532543e-18 2.12641276e-06 -3.58280082e-19)
(-2.28984175e-18 2.58260697e-06 -4.35085933e-19)
(-2.76187494e-18 3.11493299e-06 -5.2467996e-19)
(-3.30709069e-18 3.72977646e-06 -6.28121709e-19)
(-3.92968712e-18 4.4318673e-06 -7.4618769e-19)
(-4.6316915e-18 5.22348676e-06 -8.79238006e-19)
(-5.41218233e-18 6.1035907e-06 -1.02706961e-18)
(-6.26649062e-18 7.06690944e-06 -1.18876675e-18)
(-7.18546266e-18 8.10311728e-06 -1.36256443e-18)
(-8.154893e-18 9.19619387e-06 -1.54574565e-18)
(-9.15525458e-18 1.03241208e-05 -1.7345962e-18)
(-1.01618552e-17 1.14590584e-05 -1.92444063e-18)
(-1.11455268e-17 1.25681235e-05 -2.10977847e-18)
(-1.20739032e-17 1.36148296e-05 -2.28452932e-18)
(-1.29132579e-17 1.45611585e-05 -2.44237993e-18)
(-1.3630773e-17 1.53701176e-05 -2.57720752e-18)
(-1.41970048e-17 1.60085186e-05 -2.68353544e-18)
(-4.55936329e-20 5.14329242e-08 -8.66940721e-21)
(-1.37494459e-19 1.55103045e-07 -2.61437153e-20)
(-2.33710012e-19 2.63638325e-07 -4.44378513e-20)
(-3.39908994e-19 3.83431411e-07 -6.4629149e-20)
(-4.61930477e-19 5.21067244e-07 -8.782707e-20)
(-6.05922608e-19 6.83479284e-07 -1.15199406e-19)
(-7.78411946e-19 8.78027609e-07 -1.4798523e-19)
(-9.86557883e-19 1.11278579e-06 -1.87542945e-19)
(-1.23821833e-18 1.39661482e-06 -2.35362321e-19)
(-1.54190249e-18 1.73910975e-06 -2.93054936e-19)
(-1.9067498e-18 2.15057568e-06 -3.62349387e-19)
(-2.34233948e-18 2.64181278e-06 -4.4505415e-19)
(-2.85840272e-18 3.22379145e-06 -5.43001748e-19)
(-3.46436094e-18 3.90713145e-06 -6.57959813e-19)
(-4.1687008e-18 4.70139693e-06 -7.91511212e-19)
(-4.97816092e-18 5.61417952e-06 -9.44898809e-19)
(-5.89675191e-18 6.64999365e-06 -1.11883937e-18)
(-6.92464085e-18 7.8090193e-06 -1.31331316e-18)
(-8.05696392e-18 9.08576418e-06 -1.52734188e-18)
(-9.28268002e-18 1.04677724e-05 -1.75877713e-18)
(-1.05836227e-17 1.19345566e-05 -2.00412939e-18)
(-1.1933944e-17 1.34569723e-05 -2.25847394e-18)
(-1.33001583e-17 1.4997268e-05 -2.5154718e-18)
(-1.46419703e-17 1.65100193e-05 -2.76753833e-18)
(-1.59140047e-17 1.79440782e-05 -3.0061778e-18)
(-1.70684275e-17 1.92455281e-05 -3.22247884e-18)
(-1.80582844e-17 2.03614456e-05 -3.40773471e-18)
(-1.88412035e-17 2.12440739e-05 -3.55412176e-18)
(-5.43147542e-20 6.12696599e-08 -1.03274549e-20)
(-1.64096898e-19 1.8510839e-07 -3.12012552e-20)
(-2.79397816e-19 3.15169964e-07 -5.31235287e-20)
(-4.07051916e-19 4.59161497e-07 -7.73929735e-20)
(-5.54452323e-19 6.25420468e-07 -1.05414115e-19)
(-7.29491802e-19 8.2284774e-07 -1.38685794e-19)
(-9.40354042e-19 1.06067204e-06 -1.78761131e-19)
(-1.19629036e-18 1.34932579e-06 -2.27394651e-19)
(-1.5076405e-18 1.7004684e-06 -2.86545497e-19)
(-1.88561818e-18 2.12674406e-06 -3.58335678e-19)
(-2.342519e-18 2.64201591e-06 -4.45088231e-19)
(-2.89140936e-18 3.26101483e-06 -5.49266419e-19)
(-3.54584801e-18 3.99902499e-06 -6.73418733e-19)
(-4.31927912e-18 4.87119916e-06 -8.2006128e-19)
(-5.22424165e-18 5.89166701e-06 -9.91525261e-19)
(-6.2712692e-18 7.07229476e-06 -1.18974618e-18)
(-7.46754517e-18 8.42116941e-06 -1.41600785e-18)
(-8.81532639e-18 9.9408224e-06 -1.67064479e-18)
(-1.03101975e-17 1.16262629e-05 -1.95271619e-18)
(-1.19393111e-17 1.34629958e-05 -2.25968223e-18)
(-1.36798363e-17 1.5425274e-05 -2.58712576e-18)
(-1.5497907e-17 1.74749144e-05 -2.92857448e-18)
(-1.73483988e-17 1.95610477e-05 -3.27548387e-18)
(-1.91758508e-17 2.16211582e-05 -3.61743604e-18)
(-2.09167606e-17 2.35836696e-05 -3.94259067e-18)
(-2.25032989e-17 2.53721323e-05 -4.23838897e-18)
(-2.3868223e-17 2.69107599e-05 -4.4924623e-18)
(-2.49504583e-17 2.81307196e-05 -4.69364395e-18)
(-6.44801629e-20 7.27352438e-08 -1.22600016e-20)
(-1.94623255e-19 2.19538943e-07 -3.70044997e-20)
(-3.31429047e-19 3.73855263e-07 -6.30145608e-20)
(-4.83579364e-19 5.45474686e-07 -9.19397432e-20)
(-6.60615442e-19 7.45157174e-07 -1.25592367e-19)
(-8.72081212e-19 9.83665473e-07 -1.65784262e-19)
(-1.12805535e-18 1.27236508e-06 -2.14427321e-19)
(-1.44049979e-18 1.62474484e-06 -2.73789005e-19)
(-1.82314326e-18 2.05628526e-06 -3.46468961e-19)
(-2.29043175e-18 2.58327435e-06 -4.35197949e-19)
(-2.85888942e-18 3.2243419e-06 -5.4309411e-19)
(-3.54612968e-18 3.99934356e-06 -6.73472158e-19)
(-4.37091187e-18 4.92942419e-06 -8.29850331e-19)
(-5.35220702e-18 6.0359639e-06 -1.01576862e-18)
(-6.50831018e-18 7.33957696e-06 -1.23461548e-18)
(-7.85532229e-18 8.85840042e-06 -1.48933546e-18)
(-9.40534865e-18 1.06060639e-05 -1.78208472e-18)
(-1.11643162e-17 1.25892302e-05 -2.11381816e-18)
(-1.31294333e-17 1.48047342e-05 -2.48381504e-18)
(-1.52865255e-17 1.72365813e-05 -2.8891905e-18)
(-1.76075428e-17 1.98531403e-05 -3.32445119e-18)
(-2.00486746e-17 2.260502e-05 -3.78117844e-18)
(-2.25495843e-17 2.5424208e-05 -4.24793261e-18)
(-2.50342884e-17 2.82250611e-05 -4.71047007e-18)
(-2.74141134e-17 3.0907638e-05 -5.1523406e-18)
(-2.95929102e-17 3.33635748e-05 -5.55588208e-18)
(-3.14742784e-17 3.54842262e-05 -5.90354991e-18)
(-3.29700152e-17 3.71701877e-05 -6.1794285e-18)
(-7.58432332e-20 8.55514376e-08 -1.44201146e-20)
(-2.2892009e-19 2.58221531e-07 -4.35241448e-20)
(-3.9022172e-19 4.40165589e-07 -7.41901661e-20)
(-5.70619608e-19 6.4364339e-07 -1.08483489e-19)
(-7.81481092e-19 8.81474068e-07 -1.48562772e-19)
(-1.03450129e-18 1.16684615e-06 -1.96647465e-19)
(-1.34271793e-18 1.51446179e-06 -2.5520982e-19)
(-1.72211336e-18 1.94234314e-06 -3.27277927e-19)
(-2.18939686e-18 2.4693306e-06 -4.16012566e-19)
(-2.76292459e-18 3.1161198e-06 -5.24879172e-19)
(-3.46541987e-18 3.90832834e-06 -6.58160679e-19)
(-4.32002912e-18 4.8720471e-06 -8.20203453e-19)
(-5.35267384e-18 6.03649161e-06 -1.01585703e-18)
(-6.58972427e-18 7.43137827e-06 -1.25002462e-18)
(-8.05760454e-18 9.08647897e-06 -1.52757869e-18)
(-9.78042932e-18 1.10289572e-05 -1.85290383e-18)
(-1.17777318e-17 1.32808083e-05 -2.22945881e-18)
(-1.40615363e-17 1.58555615e-05 -2.65922019e-18)
(-1.66326775e-17 1.87541341e-05 -3.14199427e-18)
(-1.94768342e-17 2.19603638e-05 -3.67469152e-18)
(-2.256059e-17 2.54365713e-05 -4.25062896e-18)
(-2.58281849e-17 2.91199006e-05 -4.85898894e-18)
(-2.91997302e-17 3.29203077e-05 -5.4845771e-18)
(-3.25717372e-17 3.67211552e-05 -6.10802658e-18)
(-3.58207523e-17 4.0383308e-05 -6.70657148e-18)
(-3.88105691e-17 4.37532595e-05 -7.25544147e-18)
(-4.1402823e-17 4.66750711e-05 -7.72980394e-18)
(-4.34698381e-17 4.900485e-05 -8.10702465e-18)
(-8.85105287e-20 9.98384195e-08 -1.68280109e-20)
(-2.67238427e-19 3.01439213e-07 -5.08077692e-20)
(-4.56018968e-19 5.14375043e-07 -8.66962714e-20)
(-6.68073413e-19 7.53555491e-07 -1.27004804e-19)
(-9.17107756e-19 1.03443689e-06 -1.74335459e-19)
(-1.21787749e-18 1.37365874e-06 -2.3148755e-19)
(-1.58698901e-18 1.78994711e-06 -3.01608565e-19)
(-2.04371181e-18 2.30503001e-06 -3.88346435e-19)
(-2.60872138e-18 2.94221882e-06 -4.95607795e-19)
(-3.30860092e-18 3.731484e-06 -6.28408179e-19)
(-4.17097403e-18 4.70396463e-06 -7.91942222e-19)
(-5.22573065e-18 5.89334995e-06 -9.9180732e-19)
(-6.50962109e-18 7.3410583e-06 -1.23486353e-18)
(-8.05816477e-18 9.08711267e-06 -1.52768452e-18)
(-9.90946026e-18 1.11744369e-05 -1.87726173e-18)
(-1.20988583e-17 1.36428512e-05 -2.28997704e-18)
(-1.465679e-17 1.65266264e-05 -2.77117438e-18)
(-1.76050401e-17 1.98502867e-05 -3.32444487e-18)
(-2.0951308e-17 2.36224835e-05 -3.95060633e-18)
(-2.46834775e-17 2.78295403e-05 -4.64665621e-18)
(-2.87634646e-17 3.24285216e-05 -5.40468834e-18)
(-3.3121801e-17 3.73411287e-05 -6.21100048e-18)
(-3.76540398e-17 4.24496483e-05 -7.04559772e-18)
(-4.22203127e-17 4.75964492e-05 -7.88232118e-18)
(-4.6649442e-17 5.25886144e-05 -8.68981768e-18)
(-5.07486869e-17 5.72089219e-05 -9.43347542e-18)
(-5.43191927e-17 6.12332554e-05 -1.00782538e-17)
(-5.71756112e-17 6.44527178e-05 -1.05920681e-17)
(-1.02489309e-19 1.15604369e-07 -1.94850225e-20)
(-3.09559858e-19 3.49171197e-07 -5.88517127e-20)
(-5.28799942e-19 5.96460042e-07 -1.00528582e-19)
(-7.76127171e-19 8.75421094e-07 -1.47538498e-19)
(-1.06812086e-18 1.20475076e-06 -2.0302817e-19)
(-1.42289475e-18 1.6048753e-06 -2.70432656e-19)
(-1.86096796e-18 2.09893238e-06 -3.53638812e-19)
(-2.40604812e-18 2.71365337e-06 -4.5713097e-19)
(-3.08551287e-18 3.47990512e-06 -5.86077665e-19)
(-3.93181028e-18 4.43426765e-06 -7.46590509e-19)
(-4.97957062e-18 5.61577538e-06 -9.45166226e-19)
(-6.27350161e-18 7.07481819e-06 -1.19016856e-18)
(-7.85856398e-18 8.86206139e-06 -1.48994827e-18)
(-9.78172026e-18 1.10304178e-05 -1.85314717e-18)
(-1.20996249e-17 1.36437188e-05 -2.29012087e-18)
(-1.48624334e-17 1.67584615e-05 -2.80983953e-18)
(-1.81160457e-17 2.04263445e-05 -3.42027544e-18)
(-2.18975736e-17 2.46891627e-05 -4.1275172e-18)
(-2.62265428e-17 2.95688973e-05 -4.93410876e-18)
(-3.10972923e-17 3.50591536e-05 -5.83765973e-18)
(-3.64693182e-17 4.11142799e-05 -6.82914999e-18)
(-4.22585429e-17 4.7639526e-05 -7.89151006e-18)
(-4.83306688e-17 5.44835478e-05 -8.99870778e-18)
(-5.44985973e-17 6.14354931e-05 -1.01156879e-17)
(-6.05263215e-17 6.82293814e-05 -1.11995307e-17)
(-6.61415932e-17 7.45583777e-05 -1.22021042e-17)
(-7.10582134e-17 8.00999133e-05 -1.30741712e-17)
(-7.50061009e-17 8.4549578e-05 -1.37704609e-17)
(-1.17726435e-19 1.32789348e-07 -2.23809966e-20)
(-3.55719852e-19 4.01231902e-07 -6.76245275e-20)
(-6.08303028e-19 6.86125497e-07 -1.15637015e-19)
(-8.94461885e-19 1.00888035e-06 -1.70023269e-19)
(-1.23409136e-18 1.39193167e-06 -2.34558128e-19)
(-1.64913489e-18 1.86002388e-06 -3.13401035e-19)
(-2.164674e-18 2.44143853e-06 -4.11300036e-19)
(-2.80995897e-18 3.16915533e-06 -5.33782896e-19)
(-3.6193551e-18 4.08191745e-06 -6.87329589e-19)
(-4.6333128e-18 5.2253234e-06 -8.79545572e-19)
(-5.8986839e-18 6.652181e-06 -1.11920557e-18)
(-7.47065891e-18 8.42468953e-06 -1.41659734e-18)
(-9.40656542e-18 1.06074454e-05 -1.78231524e-18)
(-1.17793248e-17 1.32826139e-05 -2.22975744e-18)
(-1.46591673e-17 1.65293148e-05 -2.77161916e-18)
(-1.81189013e-17 2.04295691e-05 -3.42080944e-18)
(-2.22256328e-17 2.50589705e-05 -4.18882014e-18)
(-2.70409056e-17 3.04868514e-05 -5.08567549e-18)
(-3.26029251e-17 3.67562542e-05 -6.11655998e-18)
(-3.89198779e-17 4.38764065e-05 -7.28059509e-18)
(-4.59536748e-17 5.18043977e-05 -8.56797078e-18)
(-5.3606637e-17 6.04301684e-05 -9.95781728e-18)
(-6.1709936e-17 6.95634727e-05 -1.14166471e-17)
(-7.0016819e-17 7.89262311e-05 -1.28979172e-17)
(-7.82045207e-17 8.81546777e-05 -1.43433079e-17)
(-8.58896283e-17 9.68166728e-05 -1.56862965e-17)
(-9.2659598e-17 0.000104447227 -1.68580886e-17)
(-9.81188784e-17 0.00011060049 -1.77952163e-17)
(-1.3410911e-19 1.51266143e-07 -2.54944412e-20)
(-4.05379363e-19 4.57238947e-07 -7.70615965e-20)
(-6.93962444e-19 7.82733306e-07 -1.31913675e-19)
(-1.02228047e-18 1.15303428e-06 -1.94306941e-19)
(-1.41397135e-18 1.59479767e-06 -2.68724907e-19)
(-1.89533052e-18 2.13767484e-06 -3.60149474e-19)
(-2.49670288e-18 2.81588123e-06 -4.74321003e-19)
(-3.25384856e-18 3.66973481e-06 -6.17990839e-19)
(-4.209281e-18 4.74716252e-06 -7.9916459e-19)
(-5.41355551e-18 6.10515041e-06 -1.02733005e-18)
(-6.92634663e-18 7.81095514e-06 -1.31363639e-18)
(-8.81742384e-18 9.94320107e-06 -1.67104178e-18)
(-1.11660958e-17 1.25912517e-05 -2.11415439e-18)
(-1.40628473e-17 1.58570554e-05 -2.6594669e-18)
(-1.76108496e-17 1.98568523e-05 -3.32553032e-18)
(-2.19076719e-17 2.47005607e-05 -4.12940325e-18)
(-2.70451745e-17 3.04916734e-05 -5.08646882e-18)
(-3.31275493e-17 3.73475998e-05 -6.21366107e-18)
(-4.02178624e-17 4.53394196e-05 -7.51934648e-18)
(-4.83516618e-17 5.45072242e-05 -9.00583692e-18)
(-5.75018977e-17 6.48205741e-05 -1.06630861e-17)
(-6.7561884e-17 7.61592832e-05 -1.24660774e-17)
(-7.83260068e-17 8.829166e-05 -1.43722849e-17)
(-8.94753694e-17 0.000100858314 -1.63205791e-17)
(-1.00573769e-16 0.000113367609 -1.82324174e-17)
(-1.11083886e-16 0.000125213914 -2.00165722e-17)
(-1.20410175e-16 0.000135725943 -2.15776426e-17)
(-1.27969216e-16 0.00014424607 -2.28274229e-17)
(-1.51460294e-19 1.70835095e-07 -2.87916597e-20)
(-4.58004985e-19 5.16590773e-07 -8.7061381e-20)
(-7.84872724e-19 8.85262303e-07 -1.49186143e-19)
(-1.15826749e-18 1.30639934e-06 -2.20138891e-19)
(-1.60597805e-18 1.81133811e-06 -3.05188528e-19)
(-2.1591726e-18 2.43522389e-06 -4.10236964e-19)
(-2.85416183e-18 3.21899761e-06 -5.42147831e-19)
(-3.7341788e-18 4.2114006e-06 -7.09074565e-19)
(-4.85119019e-18 5.47101391e-06 -9.2078845e-19)
(-6.26771146e-18 7.06830116e-06 -1.18899823e-18)
(-8.05853128e-18 9.0875488e-06 -1.52763873e-18)
(-1.03122218e-17 1.16285654e-05 -1.95309898e-18)
(-1.31320912e-17 1.48077537e-05 -2.48431634e-18)
(-1.66369645e-17 1.87589929e-05 -3.14280028e-18)
(-2.09605597e-17 2.36329405e-05 -3.95234109e-18)
(-2.62321763e-17 2.9575276e-05 -4.9351653e-18)
(-3.26124208e-17 3.67669834e-05 -6.11831101e-18)
(-4.02304436e-17 4.53536166e-05 -7.52165954e-18)
(-4.91860388e-17 5.54476823e-05 -9.15798259e-18)
(-5.95733918e-17 6.71553972e-05 -1.10371601e-17)
(-7.13882641e-17 8.04720672e-05 -1.31492299e-17)
(-8.45258494e-17 9.5279649e-05 -1.54647804e-17)
(-9.87471991e-17 0.000111308886 -1.79304867e-17)
(-1.1365264e-16 0.000128109333 -2.046707e-17)
(-1.28663179e-16 0.000145028383 -2.29698457e-17)
(-1.43032083e-16 0.000161224335 -2.53149022e-17)
(-1.55898887e-16 0.000175727269 -2.73712367e-17)
(-1.66394504e-16 0.000187557542 -2.90177027e-17)
(-1.69535575e-19 1.91220568e-07 -3.22261629e-20)
(-5.12858019e-19 5.78454313e-07 -9.74833649e-20)
(-8.7976796e-19 9.92284865e-07 -1.67213583e-19)
(-1.30055383e-18 1.46686764e-06 -2.47163427e-19)
(-1.80752114e-18 2.03863172e-06 -3.43455824e-19)
(-2.43719246e-18 2.74875913e-06 -4.63002608e-19)
(-3.23250734e-18 3.64566341e-06 -6.1391376e-19)
(-4.24509888e-18 4.78755384e-06 -8.05915692e-19)
(-5.53768488e-18 6.24512757e-06 -1.05078247e-18)
(-7.18656196e-18 8.10437704e-06 -1.36277281e-18)
(-9.28412381e-18 1.04694244e-05 -1.7590505e-18)
(-1.19412403e-17 1.34652e-05 -2.26004691e-18)
(-1.52891959e-17 1.72396265e-05 -2.88969417e-18)
(-1.94807844e-17 2.19648576e-05 -3.67543469e-18)
(-2.46894338e-17 2.78363006e-05 -4.64777369e-18)
(-3.11043963e-17 3.50672101e-05 -5.83898691e-18)
(-3.89323016e-17 4.38904571e-05 -7.28290018e-18)
(-4.83548133e-17 5.45108165e-05 -9.00643375e-18)
(-5.9576042e-17 6.71584096e-05 -1.10376121e-17)
(-7.27199692e-17 8.19730778e-05 -1.33863915e-17)
(-8.7844642e-17 9.90203651e-05 -1.60469009e-17)
(-1.04870783e-16 0.000118211017 -1.89855449e-17)
(-1.23540334e-16 0.00013925423 -2.21360477e-17)
(-1.43377314e-16 0.000161613521 -2.53971871e-17)
(-1.63634583e-16 0.000184446724 -2.86309928e-17)
(-1.83289577e-16 0.000206601194 -3.16710774e-17)
(-2.0110075e-16 0.000226677448 -3.43398377e-17)
(-2.15755835e-16 0.00024319629 -3.64735206e-17)
(-1.8802349e-19 2.12071314e-07 -3.57387379e-20)
(-5.68994768e-19 6.41765326e-07 -1.08148138e-19)
(-9.77020146e-19 1.10196504e-06 -1.85686478e-19)
(-1.44670843e-18 1.6316976e-06 -2.74918322e-19)
(-2.01517777e-18 2.27281849e-06 -3.82875903e-19)
(-2.72470993e-18 3.07300262e-06 -5.17556168e-19)
(-3.62544906e-18 4.08878488e-06 -6.88421657e-19)
(-4.77825764e-18 5.3887767e-06 -9.06923465e-19)
(-6.25780004e-18 7.05713791e-06 -1.18705482e-18)
(-8.15587102e-18 9.19732377e-06 -1.54593102e-18)
(-1.05849123e-17 1.19360441e-05 -2.00437353e-18)
(-1.3681554e-17 1.54272521e-05 -2.58745043e-18)
(-1.76098598e-17 1.98558035e-05 -3.3248883e-18)
(-2.25637345e-17 2.54401776e-05 -4.25122085e-18)
(-2.87675832e-17 3.24332353e-05 -5.40546156e-18)
(-3.64741024e-17 4.11197504e-05 -6.83004534e-18)
(-4.59587805e-17 5.18102316e-05 -8.56892383e-18)
(-5.75029474e-17 6.482183e-05 -1.06632922e-17)
(-7.13830692e-17 8.0466269e-05 -1.31483021e-17)
(-8.78483375e-17 9.90245636e-05 -1.60474395e-17)
(-1.07017407e-16 0.00012063059 -1.93537339e-17)
(-1.28889189e-16 0.000145283221 -2.30315238e-17)
(-1.53214143e-16 0.00017270123 -2.6997566e-17)
(-1.79479909e-16 0.000202307089 -3.11256872e-17)
(-2.06765436e-16 0.00023306257 -3.52357624e-17)
(-2.33708237e-16 0.000263431854 -3.91072475e-17)
(-2.5853053e-16 0.000291411014 -4.25033209e-17)
(-2.79217101e-16 0.000314728508 -4.5207435e-17)
(-2.06550345e-19 2.32965905e-07 -3.92583711e-20)
(-6.25280696e-19 7.05244369e-07 -1.18840112e-19)
(-1.07466187e-18 1.21208413e-06 -2.04230999e-19)
(-1.59376776e-18 1.79754721e-06 -3.02840525e-19)
(-2.22472527e-18 2.5091365e-06 -4.22646566e-19)
(-3.01586352e-18 3.40134447e-06 -5.72784207e-19)
(-4.02496572e-18 4.53931675e-06 -7.64147849e-19)
(-5.32278032e-18 6.00280646e-06 -1.01003194e-18)
(-6.99690554e-18 7.89054804e-06 -1.32682506e-18)
(-9.15610821e-18 1.03251197e-05 -1.73475797e-18)