/*--------------------------------*- C++ -*----------------------------------*\
| =========                 |                                                 |
| \\      /  F ield         | foam-extend: Open Source CFD                    |
|  \\    /   O peration     | Version:     4.1                                |
|   \\  /    A nd           | Web:         http://www.foam-extend.org         |
|    \\/     M anipulation  |                                                 |
\*---------------------------------------------------------------------------*/
FoamFile
{
    version     2.0;
    format      ascii;
    class       surfaceScalarField;
    location    "0.15";
    object      meshPhi;
}
// * * * * * * * * * * * * * * * * * * * * * * * * * * * * * * * * * * * * * //

dimensions      [0 3 -1 0 0 0 0];

internalField   nonuniform List<scalar> 
102656
(
5.78241208e-21
2.8533094e-13
-5.78241208e-21
-1.33348488e-28
8.6185722e-13
-1.15648261e-20
0
1.46094093e-12
1.68955234e-28
0
2.106571e-12
-5.78241548e-21
2.31296582e-20
2.82494573e-12
-5.78241649e-21
4.62593201e-20
3.64218462e-12
0
0
4.58456935e-12
5.78241902e-21
4.62593334e-20
5.67858602e-12
-6.56718432e-28
9.25186916e-20
6.95073548e-12
0
4.26488344e-27
8.42708217e-12
1.15648505e-20
0
1.01325174e-11
0
0
1.20897231e-11
-1.39815509e-27
0
1.43178385e-11
-1.73473078e-20
-9.25188213e-20
1.6830855e-11
-5.78244086e-21
0
1.9635794e-11
-1.15648892e-20
-9.25189242e-20
2.27307624e-11
0
9.25189472e-20
2.6103015e-11
0
9.25190542e-20
2.97271982e-11
-1.15649231e-20
3.28715652e-26
3.35639765e-11
0
-9.25190629e-20
3.75592658e-11
0
0
4.1644289e-11
5.78247437e-21
-9.25192058e-20
4.57366399e-11
-1.1564977e-20
-1.8503861e-19
4.97424714e-11
-5.78249808e-21
-1.85038661e-19
5.35598291e-11
5.78249233e-21
0
5.70830297e-11
-6.60155144e-27
1.85038886e-19
6.02078521e-11
-6.96293163e-27
0
6.28371979e-11
1.15650344e-20
6.48868042e-11
-5.78252442e-21
0
-3.36863729e-29
5.76614011e-13
0
1.15648251e-20
1.74153933e-12
0
0
2.95190483e-12
1.1564828e-20
4.62593094e-20
4.25663826e-12
1.15648304e-20
7.57174499e-28
5.70925332e-12
-5.78241659e-21
2.31296618e-20
7.36312549e-12
5.78241762e-21
-4.62593289e-20
9.27202816e-12
-5.78241973e-21
0
1.14902547e-11
-5.78242169e-21
-9.2518687e-20
1.40722625e-11
0
4.62593585e-20
1.70717777e-11
5.78242562e-21
0
2.05403097e-11
0
4.62593805e-20
2.45250425e-11
-5.78243178e-21
9.25188077e-20
2.90661051e-11
5.78243553e-21
1.73438773e-26
3.41932658e-11
0
-1.85037758e-19
3.99221614e-11
-5.78244687e-21
0
4.62502462e-11
5.78244977e-21
-9.25189873e-20
5.31527303e-11
-1.15649141e-20
3.03613626e-26
6.05788622e-11
0
6.8377716e-26
6.84489785e-11
0
-1.85038204e-19
7.66527899e-11
-4.52109694e-27
-9.25192194e-20
8.50493646e-11
0
2.77557792e-19
9.34692074e-11
-5.78249459e-21
-2.77557962e-19
1.01718697e-10
0
0
1.0958694e-10
5.78250253e-21
-1.85038769e-19
1.16854839e-10
-6.9125041e-27
1.85038969e-19
1.23305904e-10
0
1.85038915e-19
1.28738056e-10
-7.62131774e-27
1.32975522e-10
7.87433977e-27
1.27709885e-25
0
8.84684953e-13
0
-1.15648252e-20
2.67194017e-12
5.7824132e-21
2.20903974e-28
4.52930329e-12
5.78241414e-21
0
6.53313283e-12
5.78241528e-21
-4.6259316e-20
8.76712885e-12
5.7824169e-21
-4.62593225e-20
1.1314927e-11
-5.78241845e-21
0
1.42610377e-11
-5.78241968e-21
4.62593404e-20
1.7691128e-11
1.1564844e-20
-4.62593471e-20
2.16915463e-11
-8.81156705e-28
4.70377643e-27
2.63479879e-11
-1.0727773e-27
4.62593835e-20
3.17432159e-11
-5.78242977e-21
1.3877817e-19
3.79537752e-11
1.15648668e-20
9.25188106e-20
4.50456862e-11
5.78243753e-21
0
5.30691795e-11
1.15648845e-20
0
6.20526267e-11
0
-2.55749911e-26
7.19959529e-11
-5.78245338e-21
-9.25189981e-20
8.28639483e-11
-1.15649231e-20
3.35130281e-26
9.4580049e-11
-3.93217713e-27
-9.25191168e-20
1.07021274e-10
0
9.25192226e-20
1.20015092e-10
-5.78248699e-21
-9.25192448e-20
1.3333901e-10
-5.78249556e-21
-9.25193092e-20
1.46723552e-10
0
9.25194277e-20
1.59859133e-10
1.15650187e-20
9.25194307e-20
1.72406954e-10
-7.26502354e-27
3.70078066e-19
1.84013627e-10
0
1.85039197e-19
1.94328778e-10
0
1.85039138e-19
2.03024371e-10
5.78253218e-21
2.09814202e-10
5.78253632e-21
0
-3.90885498e-29
1.22268015e-12
-7.81770995e-29
-1.15648255e-20
3.69302945e-12
5.78241336e-21
2.31296534e-20
6.26191527e-12
0
-2.31296558e-20
9.03750557e-12
5.78241565e-21
2.31296597e-20
1.21386812e-11
0
2.31296634e-20
1.56846263e-11
0
2.85171016e-27
1.97963501e-11
-6.4014908e-28
-4.62593459e-20
2.45972631e-11
-5.78242359e-21
4.34586522e-27
3.02126596e-11
-5.7824264e-21
0
3.67679528e-11
1.1564857e-20
4.62593889e-20
4.43855219e-11
-5.78243211e-21
1.53703977e-26
5.31800591e-11
5.7824363e-21
9.25188425e-20
6.3252371e-11
-2.1055709e-27
-9.25189112e-20
7.46816842e-11
0
-2.54454847e-26
8.75166538e-11
-5.78245292e-21
9.25190014e-20
1.01765456e-10
5.78245991e-21
-3.42386586e-26
1.17385564e-10
5.78246762e-21
3.92099564e-26
1.34274028e-10
-5.78248061e-21
0
1.52259309e-10
5.78248502e-21
9.25193375e-20
1.7109585e-10
-5.78250041e-21
1.85038845e-19
1.90462631e-10
-5.78251092e-21
-2.77558401e-19
2.09966825e-10
-1.15650431e-20
0
2.29153414e-10
0
9.25196698e-20
2.47521052e-10
-8.68681264e-27
0
2.64543859e-10
5.78254232e-21
-1.85039609e-19
2.79697984e-10
5.78256005e-21
-1.85039711e-19
2.92491063e-10
-5.78256717e-21
3.02492065e-10
5.78256204e-21
1.85039614e-19
-4.40557077e-29
1.60362587e-12
-4.40557077e-29
1.15648257e-20
4.84444272e-12
5.78241346e-21
0
8.21799634e-12
-5.78241499e-21
-2.31296578e-20
1.18706311e-11
0
2.014557e-27
1.5963655e-11
0
-2.31296645e-20
2.06595334e-11
-5.75339211e-28
0
2.61242642e-11
-5.78242259e-21
4.62593539e-20
3.25284556e-11
-9.17228395e-28
5.0270088e-27
4.00468956e-11
0
-4.62593791e-20
4.88563839e-11
-1.39800568e-27
7.48583218e-27
5.91316063e-11
-1.7053586e-27
1.38778277e-19
7.10388563e-11
0
0
8.47274856e-11
-5.78244892e-21
-9.25189729e-20
1.00319097e-10
5.7824532e-21
-9.2519043e-20
1.17894692e-10
-5.78246089e-21
-9.25191214e-20
1.37480255e-10
-5.78247369e-21
0
1.59031574e-10
1.15649632e-20
-9.25192546e-20
1.82419458e-10
5.78249531e-21
5.43851022e-26
2.07416867e-10
0
-9.25194478e-20
2.33689722e-10
0
9.25196184e-20
2.60793336e-10
-1.15650678e-20
-9.25195764e-20
2.88176264e-10
-5.78254759e-21
0
3.15193e-10
-1.15651125e-20
1.85039698e-19
3.41126201e-10
5.78257437e-21
-1.85039874e-19
3.65218089e-10
-1.16427967e-26
0
3.86709451e-10
1.1565183e-20
-1.85040366e-19
4.04883401e-10
1.29979752e-26
4.19110073e-10
-1.34866665e-26
2.19119639e-25
-5.78241235e-21
2.04060106e-12
-5.05354047e-29
-1.15648263e-20
6.16600374e-12
0
-2.31296552e-20
1.04662581e-11
0
-2.31296596e-20
1.51344042e-11
-1.15648342e-20
-2.31296627e-20
2.03838905e-11
5.78241876e-21
-4.62593349e-20
2.64309122e-11
1.15648426e-20
0
3.34980281e-11
-1.73472724e-20
-4.62593598e-20
4.18160517e-11
5.78242666e-21
4.62593878e-20
5.16239166e-11
-5.78243171e-21
1.46139567e-26
6.31661815e-11
-5.78243646e-21
9.25188451e-20
7.66878368e-11
-5.78244211e-21
4.62594558e-20
9.24260902e-11
5.78244629e-21
0
1.10598877e-10
-2.99198064e-27
9.2519025e-20
1.31390015e-10
-3.59329678e-27
-9.25191448e-20
1.54931196e-10
1.15649477e-20
0
1.8128136e-10
0
-9.25193043e-20
2.10404509e-10
5.78249497e-21
5.93009164e-26
2.42147523e-10
0
1.36021373e-25
2.76220125e-10
-1.15650545e-20
9.25197466e-20
3.12179629e-10
5.782539e-21
-1.85039607e-19
3.49423391e-10
-1.02499091e-26
9.2520132e-20
3.87191863e-10
5.78257233e-21
1.85040146e-19
4.24584648e-10
0
0
4.60590898e-10
0
-1.85040637e-19
4.9413388e-10
-1.49088832e-26
1.85041105e-19
5.24127548e-10
5.78263467e-21
0
5.49541e-10
0
5.69464947e-10
5.78265568e-21
1.85041422e-19
-5.85417723e-29
2.54680668e-12
0
-2.37253889e-28
7.69796597e-12
0
1.15648283e-20
1.30763632e-11
-5.78241613e-21
0
1.89326183e-11
5.78241776e-21
2.31296682e-20
2.55447796e-11
5.78241997e-21
-2.31296729e-20
3.31963062e-11
0
0
4.21814553e-11
-1.004223e-27
-4.62593779e-20
5.28084494e-11
-1.27125136e-27
9.25187981e-20
6.53999736e-11
5.78243394e-21
4.62594157e-20
8.02905117e-11
-1.98039851e-27
-4.62594548e-20
9.78200392e-11
5.78244588e-21
4.62594644e-20
1.18323542e-10
-5.78245661e-21
0
1.42115878e-10
-3.6448855e-27
0
1.69471726e-10
-4.40408252e-27
0
2.00600679e-10
-5.28159499e-27
-9.25194053e-20
2.35618108e-10
-5.78250606e-21
0
2.74513055e-10
-7.41404002e-27
-9.25195583e-20
3.17115261e-10
-8.66988633e-27
0
3.63064298e-10
5.7825626e-21
-9.25199644e-20
4.11784646e-10
-5.78259632e-21
2.21877547e-25
4.62471121e-10
-5.78260818e-21
-9.25203242e-20
5.14089253e-10
-1.46754587e-26
1.85041145e-19
5.6539459e-10
-5.78265646e-21
-9.25208257e-20
6.14973541e-10
-1.78540797e-26
0
6.61305998e-10
-5.78270231e-21
-1.85041953e-19
7.02846989e-10
0
0
7.38121344e-10
-5.78273955e-21
7.65822464e-10
1.15654834e-20
1.85042727e-19
-6.808308e-29
3.135515e-12
5.78241254e-21
-1.15648273e-20
9.48090532e-12
-2.06193783e-28
-1.15648288e-20
1.61188525e-11
-5.78241688e-21
6.93889907e-20
2.33710092e-11
0
-2.31296672e-20
3.15955555e-11
-6.99761532e-28
-4.62593512e-20
4.11602908e-11
5.78242452e-21
4.62593729e-20
5.24504623e-11
0
-4.62593942e-20
6.58739038e-11
-1.15648686e-20
4.62594201e-20
8.18626992e-11
-1.90388511e-27
4.62594515e-20
1.00870628e-10
-5.78244736e-21
-4.62594761e-20
1.23365804e-10
5.78245304e-21
-4.62595182e-20
1.49817653e-10
-3.64223826e-27
9.2519175e-20
1.80677337e-10
-5.78247863e-21
-4.75238387e-26
2.16351061e-10
-5.42151215e-27
9.25194445e-20
2.57166067e-10
-5.78251648e-21
0
3.03329886e-10
7.8307474e-27
0
3.5488432e-10
-9.29479465e-27
-9.251991e-20
4.11656858e-10
1.1565141e-20
1.09447919e-25
4.73213574e-10
5.78257765e-21
-9.25203486e-20
5.38818996e-10
-5.7826325e-21
1.42577153e-25
6.07409568e-10
0
0
6.77587892e-10
0
1.85042502e-19
7.47644362e-10
-1.1565436e-20
1.85042811e-19
8.15610963e-10
0
1.85043471e-19
8.79348574e-10
5.78279079e-21
0
9.36664452e-10
-2.70405761e-26
-3.70087508e-19
9.85451225e-10
-5.78284173e-21
1.02383387e-09
-5.7828603e-21
1.85044477e-19
-1.15648256e-20
3.81985314e-12
-5.78241278e-21
-3.21487389e-28
1.15551799e-11
-5.7824152e-21
2.31296614e-20
1.96644231e-11
-5.78241776e-21
4.62593335e-20
2.85563564e-11
-5.99676225e-28
6.9389022e-20
3.8688235e-11
5.78242311e-21
0
5.05334023e-11
0
-4.62593814e-20
6.45921773e-11
-5.7824327e-21
0
8.14001335e-11
-1.79558102e-27
0
1.01531788e-10
-5.78244578e-21
-4.62594713e-20
1.25598514e-10
-1.15649092e-20
9.25190617e-20
1.54240427e-10
-3.5705955e-27
1.38778742e-19
1.88110701e-10
5.78247374e-21
0
2.27850789e-10
-5.45552626e-27
0
2.74055421e-10
-6.6734072e-27
-1.85039234e-19
3.27226761e-10
-5.78253341e-21
0
3.87718021e-10
1.15651069e-20
9.25200075e-20
4.55668154e-10
0
1.19386838e-25
5.3093092e-10
1.15652104e-20
9.25206797e-20
6.13003707e-10
0
9.25210027e-20
7.00963808e-10
0
-2.77563665e-19
7.93421998e-10
-5.78273507e-21
0
8.88504542e-10
5.78277839e-21
-1.85044097e-19
9.83874505e-10
5.7827951e-21
2.53018292e-25
1.07680091e-09
5.78280542e-21
5.4841932e-25
1.16427941e-09
0
0
1.24320078e-09
1.1565854e-20
1.85045834e-19
1.31055517e-09
-5.782977e-21
1.36365136e-09
-3.9299292e-26
-6.4044402e-25
-5.78241297e-21
4.61229959e-12
-5.78241297e-21
2.31296572e-20
1.39597823e-11
5.78241549e-21
5.79614298e-28
2.37825157e-11
-5.78241875e-21
1.63400334e-27
3.45945636e-11
1.15648428e-20
2.31296794e-20
4.69750103e-11
5.782426e-21
6.93890635e-20
6.15289843e-11
1.15648602e-20
-4.62593975e-20
7.890124e-11
-1.6548178e-27
0
9.97901182e-11
-5.78244356e-21
-9.25189256e-20
1.2495468e-10
-5.78245231e-21
0
1.55213137e-10
0
0
1.91434796e-10
5.78247196e-21
4.62596268e-20
2.34522071e-10
-5.78249229e-21
9.25194701e-20
2.85379788e-10
-5.78251162e-21
1.8503927e-19
3.44870134e-10
5.78252653e-21
2.77559546e-19
4.13751665e-10
5.78255204e-21
-9.25202879e-20
4.92602218e-10
-1.21296718e-26
1.85040739e-19
5.81727193e-10
5.78261622e-21
-9.25207008e-20
6.81057091e-10
0
1.7688527e-25
7.90041026e-10
-5.78271946e-21
0
9.07546886e-10
-2.38909677e-26
-9.2521894e-20
1.03178252e-09
5.78279856e-21
9.25223358e-20
1.16025506e-09
-5.7828842e-21
5.9779175e-25
1.28978601e-09
0
9.2523546e-20
1.41659714e-09
0
0
1.53647534e-09
0
0
1.64501363e-09
5.78306397e-21
1.85048574e-19
1.73791134e-09
5.78310545e-21
1.81130222e-09
-5.177003e-26
0
5.78241307e-21
5.52288648e-12
5.78241307e-21
0
1.67295168e-11
5.78241641e-21
-1.15648326e-20
2.85393529e-11
-5.78241986e-21
0
4.15877874e-11
0
2.55963204e-27
5.66037721e-11
-5.78242834e-21
0
7.43577306e-11
0
0
9.56729847e-11
0
0
1.21453378e-10
5.78244675e-21
-4.62594803e-20
1.52696219e-10
0
-4.62595488e-20
1.90488823e-10
-4.07957074e-27
0
2.36003125e-10
1.1564973e-20
0
2.90476639e-10
-6.47104681e-27
7.15872738e-26
3.55175258e-10
0
8.84077969e-26
4.31336582e-10
-5.78256195e-21
0
5.20089968e-10
0
1.31728629e-25
6.22352482e-10
-5.78263722e-21
-9.25209723e-20
7.3870169e-10
5.78266642e-21
1.89456206e-25
8.69229415e-10
0
9.25219511e-20
1.01338423e-09
-2.58292466e-26
9.25225177e-20
1.16981701e-09
0
-9.25228236e-20
1.33625027e-09
-1.15658822e-20
9.25237611e-20
1.50939736e-09
-4.03776894e-26
-1.85048426e-19
1.68495955e-09
-4.57011217e-26
-9.25250401e-20
1.8577272e-09
0
0
2.02180156e-09
-5.78325571e-21
0
2.17093771e-09
-6.08221897e-26
0
2.29898602e-09
-6.48872943e-26
2.40038493e-09
-5.7834362e-21
0
5.78241328e-21
6.56838762e-12
-1.20910379e-28
2.31296607e-20
1.99047535e-11
-3.6721053e-28
0
3.39890585e-11
-1.15648421e-20
2.31296769e-20
4.96163064e-11
-9.28484029e-28
4.62593787e-20
6.77053997e-11
-1.2838836e-27
2.31297053e-20
8.92199047e-11
1.73473089e-20
0
1.15193558e-10
0
-4.62594782e-20
1.46791834e-10
0
1.69659943e-26
1.85321129e-10
-5.78246455e-21
4.6259618e-20
2.32214215e-10
5.78247449e-21
0
2.89038089e-10
0
3.45580437e-26
3.57476684e-10
-5.7825281e-21
0
4.39285652e-10
0
-9.25200952e-20
5.36223806e-10
5.78259399e-21
0
6.49949756e-10
0
9.2520866e-20
7.81883579e-10
-5.78268902e-21
-9.25213526e-20
9.3303268e-10
-1.15654766e-20
1.85044296e-19
1.10378636e-09
-2.71260954e-26
-1.85045364e-19
1.29368561e-09
-5.78289908e-21
-9.25232378e-20
1.50118723e-09
5.78298791e-21
3.85073124e-25
1.72345156e-09
-4.47791445e-26
1.85050014e-19
1.95619292e-09
-5.78318869e-21
-2.77577797e-19
2.19363698e-09
0
9.25269597e-20
2.4286291e-09
-1.15667431e-20
0
2.65292639e-09
-5.78350934e-21
0
2.85768222e-09
0
0
3.03409534e-09
-8.50140924e-26
3.1741528e-09
5.78366799e-21
-1.85059167e-19
-5.78241365e-21
7.75603197e-12
0
-3.46944936e-20
2.35081575e-11
0
-2.31296717e-20
4.01786198e-11
-5.78242235e-21
2.31296837e-20
5.87620444e-11
-1.05768845e-27
3.38483788e-27
8.03944343e-11
-1.46746442e-27
-4.50024964e-27
1.06265318e-10
0
-4.62594585e-20
1.37686753e-10
5.7824481e-21
4.62595084e-20
1.76163624e-10
5.78245927e-21
9.25191423e-20
2.23368186e-10
0
1.38779001e-19
2.81160473e-10
-5.7824967e-21
-4.62597159e-20
3.51630846e-10
1.15650264e-20
4.62599117e-20
4.3705349e-10
-9.20291685e-27
0
5.39839903e-10
5.78257483e-21
0
6.62464651e-10
1.45995305e-26
0
8.07331869e-10
-1.15653524e-20
-1.98925994e-25
9.76594904e-10
5.7827277e-21
9.25217552e-20
1.17192078e-09
-5.78282705e-21
-1.85045434e-19
1.39420831e-09
0
0
1.64325589e-09
-5.78301958e-21
-9.25244484e-20
1.91740552e-09
1.15662229e-20
-9.25259341e-20
2.21320458e-09
1.15664702e-20
2.77581211e-19
2.52514156e-09
5.78340119e-21
0
2.8455251e-09
0
7.19692726e-25
3.16457871e-09
0
1.85059459e-19
3.47081257e-09
-5.78383422e-21
0
3.75170091e-09
-5.78396666e-21
0
3.99463534e-09
5.78397129e-21
4.18804953e-09
-5.78417519e-21
-1.85064109e-19
0
9.08523183e-12
1.15648276e-20
1.1564832e-20
2.75495713e-11
-4.6738236e-28
0
4.71417064e-11
-8.05268641e-28
0
6.90777841e-11
-1.15648579e-20
4.62594041e-20
9.47424289e-11
-1.15648731e-20
4.62594415e-20
1.25615517e-10
-5.78244524e-21
0
1.63360749e-10
1.15649095e-20
-1.76697955e-26
2.09869192e-10
-5.7824702e-21
4.62596607e-20
2.67271396e-10
5.78248286e-21
0
3.38009107e-10
0
4.6259827e-20
4.24813285e-10
-5.78253039e-21
4.8575362e-26
5.30695216e-10
5.78257444e-21
-9.2520439e-20
6.58956799e-10
-1.37756584e-26
-9.25209219e-20
8.13046429e-10
1.15653121e-20
9.25213156e-20
9.96403896e-10
-1.15654808e-20
0
1.21223482e-09
1.15656156e-20
0
1.46319138e-09
0
-2.77571036e-19
1.75100308e-09
-5.78303215e-21
-9.25247342e-20
2.0760015e-09
-5.00462655e-26
-9.25259245e-20
2.43658999e-09
1.15665692e-20
-9.25272369e-20
2.82871409e-09
-5.78348219e-21
-1.85057293e-19
3.24541121e-09
0
9.25317567e-20
3.67654545e-09
-9.61060342e-26
1.85064104e-19
4.10884348e-09
0
-2.05401154e-24
4.52634301e-09
0
0
4.91132452e-09
-5.78442868e-21
0
5.24570686e-09
-5.78458776e-21
5.51275753e-09
-1.53200139e-25
1.85072413e-19
0
1.05607507e-11
-5.78241415e-21
0
3.20400114e-11
0
0
5.48888209e-11
0
0
8.05783701e-11
5.78243026e-21
2.31297109e-20
1.10794267e-10
5.78243764e-21
-2.31297388e-20
1.47367436e-10
5.7824469e-21
0
1.92361763e-10
5.78246202e-21
-4.6259595e-20
2.48130231e-10
-4.42482146e-27
2.62722158e-26
3.17396584e-10
0
3.41341851e-26
4.03300206e-10
0
1.85039736e-19
5.0938924e-10
5.78254889e-21
-9.25202348e-20
6.39692694e-10
5.78258854e-21
-9.25207654e-20
7.9861465e-10
-5.78265447e-21
0
9.9084592e-10
5.78270025e-21
9.2522076e-20
1.22129717e-09
-5.78277671e-21
-2.90500703e-25
1.49466639e-09
0
0
1.8150316e-09
-1.15660064e-20
9.25252528e-20
2.18542924e-09
-5.7831672e-21
5.39536609e-25
2.60716614e-09
0
9.25283502e-20
3.0790402e-09
-5.78345476e-21
0
3.59652833e-09
0
1.85063467e-19
4.15104005e-09
-1.1567869e-20
0
4.72940113e-09
5.7841212e-21
9.25352319e-20
5.31374208e-09
0
-2.6457361e-24
5.88198808e-09
5.78461288e-21
1.85080747e-19
6.40910746e-09
0
-1.85080848e-19
6.86914219e-09
-5.78523547e-21
7.2378197e-09
0
0
0
1.21794406e-11
0
1.15648339e-20
3.69699276e-11
0
1.15648413e-20
6.3407849e-11
-5.7824264e-21
0
9.32589608e-11
-1.4664879e-27
-2.31297084e-20
1.28557175e-10
5.78244248e-21
2.31297364e-20
1.71532703e-10
5.78245082e-21
4.62595327e-20
2.24718507e-10
5.78246786e-21
4.625961e-20
2.91046672e-10
1.15649625e-20
0
3.7394506e-10
0
-4.62598378e-20
4.77386579e-10
5.78253186e-21
0
6.05986008e-10
1.1565148e-20
9.25204872e-20
7.65014435e-10
1.44932377e-26
-9.2520949e-20
9.60302568e-10
0
-1.85043652e-19
1.19829266e-09
5.78274839e-21
-1.85045411e-19
1.48580602e-09
5.78284105e-21
-9.25234381e-20
1.82951403e-09
-1.15659492e-20
1.85049315e-19
2.23556166e-09
-5.78319166e-21
5.36301381e-25
2.70899837e-09
-6.05498444e-26
-9.25278289e-20
3.25279064e-09
5.78353459e-21
-9.25298058e-20
3.8667074e-09
-1.15675633e-20
-9.25329936e-20
4.54610807e-09
5.7839535e-21
-1.85071235e-19
5.28073051e-09
-1.15687532e-20
-9.25370934e-20
6.05376122e-09
5.78456208e-21
-1.85081043e-19
6.84141322e-09
-1.76672465e-25
0
7.61335135e-09
-2.00229101e-25
1.85089606e-19
8.3342932e-09
-5.78576033e-21
-1.85097768e-19
8.96692838e-09
-1.15721211e-20
9.47592112e-09
0
0
5.78241443e-21
1.39320946e-11
-2.02691271e-28
0
4.23118071e-11
5.78242026e-21
0
7.26537564e-11
-1.06927281e-27
-2.3129703e-20
1.07057161e-10
5.78243398e-21
4.62594492e-20
1.47951985e-10
-5.78244531e-21
-7.04971656e-27
1.98025562e-10
-5.78245766e-21
-4.62595765e-20
2.60359188e-10
1.1564943e-20
-4.62596699e-20
3.38559408e-10
-5.78249422e-21
3.31475198e-26
4.36884643e-10
0
4.62599486e-20
5.603576e-10
0
1.38780398e-19
7.14874396e-10
-5.78260096e-21
4.62602632e-20
9.07210573e-10
-1.15653013e-20
0
1.14508254e-09
-5.78273296e-21
2.49091434e-25
1.43723879e-09
5.78279954e-21
9.25230694e-20
1.79302703e-09
-3.55295666e-26
0
2.22169014e-09
0
9.25262964e-20
2.73220619e-09
0
9.25282321e-20
3.33269293e-09
5.78342432e-21
7.9451341e-25
4.02879318e-09
-5.78376139e-21
1.85066454e-19
4.82217818e-09
-5.78396307e-21
-1.85071428e-19
5.7088122e-09
-5.78456851e-21
-9.25397271e-20
6.67698788e-09
5.78467882e-21
-9.25401185e-20
7.70577455e-09
0
-9.25453509e-20
8.76399689e-09
5.78553345e-21
1.85102115e-19
9.81034348e-09
-1.15724662e-20
0
1.07952591e-08
-5.78669223e-21
1.8511012e-19
1.16650509e-08
5.7867927e-21
1.23680285e-08
1.15745498e-20
-1.85120004e-19
-4.32670706e-28
1.58027268e-11
-4.32670706e-28
0
4.8017434e-11
0
-1.15648428e-20
8.25450246e-11
5.78242764e-21
2.31297031e-20
1.21855702e-10
5.78243561e-21
-2.31297251e-20
1.6882259e-10
0
4.62595146e-20
2.26649592e-10
1.15649194e-20
4.62595809e-20
2.99045764e-10
-5.78247887e-21
-4.62597052e-20
3.90398312e-10
5.78249575e-21
3.64635923e-26
5.05944842e-10
-7.98668993e-27
4.62600186e-20
6.51940172e-10
1.15651417e-20
4.62602495e-20
8.35809806e-10
0
0
1.06626182e-09
-1.15653764e-20
0
1.35336476e-09
-2.40874705e-26
-9.25228543e-20
1.70863135e-09
-3.13860697e-26
-9.25240994e-20
2.14455885e-09
0
-9.25256618e-20
2.6740964e-09
0
9.25276029e-20
3.31049128e-09
1.15667012e-20
-9.25284579e-20
4.06584045e-09
-5.78368685e-21
-9.25318783e-20
4.94957264e-09
-1.06486516e-25
9.25350359e-20
5.96700444e-09
5.78440295e-21
1.43232555e-24
7.11606693e-09
0
-9.25428311e-20
8.38428931e-09
-5.78538133e-21
-9.25473592e-20
9.74652486e-09
0
-9.25521335e-20
1.11628145e-08
-5.78658413e-21
0
1.25776409e-08
0
0
1.39217982e-08
-5.78784988e-21
1.8513749e-19
1.51179343e-08
-3.99319853e-25
1.60899206e-08
0
-1.85136909e-19
5.78241478e-21
1.77680487e-11
5.78241478e-21
1.15648363e-20
5.40161633e-11
-6.93742451e-28
-1.47618311e-27
9.29606442e-11
5.7824297e-21
2.31297063e-20
1.37476993e-10
0
-2.31297299e-20
1.90925457e-10
0
2.31297604e-20
2.57083458e-10
0
-4.62596231e-20
3.40365087e-10
-4.7785067e-27
4.6259707e-20
4.46044661e-10
5.78250836e-21
-4.62598466e-20
5.80486937e-10
5.7825326e-21
4.62600829e-20
7.5138125e-10
5.78258453e-21
-6.97261189e-26
9.67970338e-10
-5.78264144e-21
4.62604946e-20
1.24125478e-09
1.73481073e-20
0
1.58415112e-09
-5.78281299e-21
9.25230479e-20
2.01156198e-09
5.78290345e-21
-4.13921624e-25
2.5400281e-09
1.15661074e-20
1.85052227e-19
3.18755519e-09
0
9.25282659e-20
3.97285879e-09
5.78348713e-21
1.75864891e-24
4.91366068e-09
-1.15677726e-20
9.25364157e-20
6.02550961e-09
0
-9.25381091e-20
7.31919653e-09
-1.56378624e-25
-2.77629878e-19
8.79647777e-09
1.15704748e-20
2.09590486e-24
1.0445924e-08
-2.38424402e-25
1.85107822e-19
1.22389449e-08
5.78674692e-21
0
1.41260128e-08
0
-1.85133447e-19
1.60340136e-08
5.78802384e-21
3.70291792e-19
1.7867205e-08
5.78881788e-21
3.70322261e-19
1.95141072e-08
-5.79005819e-21
2.08615212e-08
1.15808705e-20
-1.85165403e-19
5.78241511e-21
1.97972798e-11
0
-9.6424915e-28
6.02142828e-11
-7.16801554e-28
0
1.03738751e-10
0
0
1.53680274e-10
0
-4.62594792e-20
2.13924003e-10
-5.78245158e-21
0
2.88871355e-10
-5.78246687e-21
-4.625964e-20
3.83711805e-10
5.78248196e-21
-4.62597615e-20
5.04706299e-10
-5.78251361e-21
4.19133934e-26
6.59487946e-10
5.78253984e-21
-4.6260081e-20
8.5737976e-10
-1.22585403e-26
9.2520766e-20
1.10972133e-09
5.78265812e-21
9.25214876e-20
1.43018509e-09
0
9.25225656e-20
1.8350475e-09
-5.78284797e-21
-9.25238388e-20
2.34335257e-09
-3.8370995e-26
0
2.97685559e-09
-5.78312089e-21
-5.99808147e-25
3.7597688e-09
-5.78334073e-21
9.25302945e-20
4.71773299e-09
5.78362111e-21
1.00334913e-24
5.87662133e-09
-5.78408661e-21
9.25378788e-20
7.2609871e-09
-1.42880787e-25
9.25430051e-20
8.88986635e-09
-5.78514366e-21
9.25491381e-20
1.07717229e-08
-2.2843361e-25
-1.85110107e-19
1.28991608e-08
0
2.77693372e-19
1.52426479e-08
5.78728883e-21
0
1.77440333e-08
-1.1576991e-20
1.85165541e-19
2.03100937e-08
-1.73690534e-20
-1.85183943e-19
2.28104828e-08
-1.15820196e-20
-1.85200464e-19
2.50848234e-08
-5.79210113e-21
2.69625575e-08
5.79231797e-21
-1.85201739e-19
5.78241492e-21
2.18524187e-11
5.78241492e-21
0
6.64957686e-11
-1.1564845e-20
1.15648434e-20
1.14677696e-10
-5.78243061e-21
0
1.70162599e-10
-5.78244025e-21
2.31297416e-20
2.37388808e-10
1.15649021e-20
-2.31297775e-20
3.2142142e-10
0
4.62596267e-20
4.28282973e-10
5.78248395e-21
0
5.65305709e-10
-5.78251698e-21
4.36170366e-26
7.41515256e-10
-5.78255424e-21
-4.62601178e-20
9.68049424e-10
0
-4.62604014e-20
1.25860719e-09
-1.7218386e-26
4.62607782e-20
1.62991022e-09
-5.78275897e-21
9.25225532e-20
2.10214056e-09
5.78284526e-21
0
2.69929027e-09
0
9.25255809e-20
3.44932345e-09
-1.15664122e-20
9.25278085e-20
4.38402601e-09
-5.78342525e-21
-9.25315424e-20
5.53828871e-09
1.15675829e-20
9.2535466e-20
6.94871602e-09
-1.23985855e-25
1.45063809e-24
8.65149609e-09
-1.15694998e-20
1.85091236e-19
1.06785627e-08
5.78531602e-21
-9.25516904e-20
1.30507007e-08
5.78611208e-21
-9.25629775e-20
1.5768524e-08
0
3.64226117e-24
1.88061528e-08
5.78819776e-21
4.4219763e-24
2.21022049e-08
5.78948806e-21
0
2.55442392e-08
-6.05319668e-25
0
2.89597344e-08
2.96272215e-21
1.8523098e-19
3.21197389e-08
-2.30332784e-20
3.47628747e-08
1.55937576e-22
0
-5.78241489e-21
2.38890504e-11
0
1.15648368e-20
7.2724709e-11
0
2.31296897e-20
1.25540084e-10
0
2.31297095e-20
1.86564486e-10
0
0
2.60804836e-10
-5.78245231e-21
2.31297691e-20
3.54014284e-10
0
0
4.73087179e-10
0
3.26467622e-26
6.26487978e-10
0
0
8.24729374e-10
0
6.00742912e-26
1.08090897e-09
1.15651896e-20
0
1.41130527e-09
-1.76592629e-26
-9.25218788e-20
1.83602061e-09
5.7827224e-21
9.25227202e-20
2.37963845e-09
0
-9.25245241e-20
3.07183277e-09
-4.3083881e-26
1.85052513e-19
3.9478256e-09
5.78322105e-21
-7.02023604e-25
5.0485351e-09
5.78349061e-21
1.85064211e-19
6.4201768e-09
-5.78394558e-21
1.85072785e-19
8.11303587e-09
-1.1568739e-20
1.85083754e-19
1.0179012e-08
-1.76654515e-25
9.25519383e-20
1.2667975e-08
0
9.25587966e-20
1.56193066e-08
-5.78717645e-21
0
1.90514416e-08
-5.78774216e-21
9.25785802e-20
2.29534961e-08
1.15787711e-20
0
2.72696895e-08
-5.79139975e-21
-1.85217669e-19
3.18762763e-08
-2.82295759e-21
0
3.65589745e-08
-8.61226342e-21
3.70585869e-19
4.09982584e-08
-1.73909969e-20
4.47860787e-08
-2.31964847e-20
-1.85330502e-19
-1.15648298e-20
2.58577346e-11
-1.15648298e-20
0
7.87495186e-11
-5.78242206e-21
0
1.3606005e-10
-1.15648585e-20
0
2.02480729e-10
-1.84068542e-27
-2.31297329e-20
2.83586491e-10
5.7824512e-21
0
3.85823296e-10
-5.7824669e-21
-4.62596461e-20
5.16970884e-10
-5.78249298e-21
4.62597763e-20
6.8665394e-10
6.95808705e-27
9.25198614e-20
9.06923563e-10
0
1.19505584e-25
1.19292578e-09
-5.78260641e-21
-9.25209469e-20
1.56366616e-09
-5.78267658e-21
-4.62610597e-20
2.04286721e-09
-2.39214444e-26
-9.2522773e-20
2.65989524e-09
-5.78286665e-21
0
3.45070221e-09
-5.7830706e-21
-5.42480468e-25
4.45868238e-09
-5.90796842e-26
-9.25295389e-20
5.73527856e-09
0
0
7.34008629e-09
5.78390533e-21
9.25380872e-20
9.34010571e-09
-5.78454598e-21
1.8508882e-19
1.18076729e-08
-5.78524449e-21
2.25860457e-24
1.4816528e-08
-1.15722975e-20
-9.25599921e-20
1.84337432e-08
5.78698148e-21
1.85148306e-19
2.27105998e-08
0
-9.25825646e-20
2.76703719e-08
-1.4409954e-20
1.85218102e-19
3.32836648e-08
1.52138945e-22
-1.85255405e-19
3.9438834e-08
-8.60555447e-21
-1.85304367e-19
4.5901518e-08
-2.31919458e-20
1.85377332e-19
5.22521229e-08
-2.32046912e-20
5.78455923e-08
-1.74131153e-20
0
-2.13742971e-28
2.77059509e-11
5.78241459e-21
-2.3129672e-20
8.44089143e-11
1.15648422e-20
1.15648443e-20
1.45953732e-10
0
-4.12314401e-27
2.17476347e-10
5.78243766e-21
-6.93891903e-20
3.05100638e-10
-5.782449e-21
2.31297601e-20
4.15946897e-10
-5.78246397e-21
-2.23615439e-26
5.58663239e-10
-1.15649634e-20
-9.25194784e-20
7.44021379e-10
0
-4.20820727e-26
9.85606211e-10
-9.09950902e-27
0
1.3006248e-09
0
4.62604751e-20
1.71085458e-09
0
-4.62610126e-20
2.24374e-09
0
0
2.93362936e-09
5.78285606e-21
0
3.82311365e-09
-5.78310244e-21
-5.38691625e-25
4.96438427e-09
-5.84835288e-26
0
6.4204603e-09
-7.92400558e-26
-9.25324045e-20
8.26604672e-09
5.78391515e-21
9.25385027e-20
1.05876744e-08
-5.78458163e-21
9.25452831e-20
1.34826432e-08
1.15704563e-20
9.25542166e-20
1.70561481e-08
5.78578913e-21
0
2.14157664e-08
-3.44865706e-25
-2.77735368e-19
2.66633941e-08
5.78882983e-21
-9.26010212e-20
3.28835863e-08
-5.79122694e-21
0
4.01215322e-08
-2.31752437e-20
0
4.83398512e-08
-1.73931666e-20
1.85394735e-19
5.73508937e-08
-2.90083213e-20
1.85453045e-19
6.66800914e-08
-2.32258573e-20
7.53241147e-08
-1.74354077e-20
1.85564529e-19
-1.93662303e-28
2.93805318e-11
-1.93662303e-28
-2.31296696e-20
8.95393883e-11
5.78241991e-21
0
1.54932493e-10
0
0
2.31107035e-10
-5.78243529e-21
5.31440091e-27
3.24696747e-10
0
-2.31297578e-20
4.4345216e-10
-5.78245942e-21
0
5.96838346e-10
-1.15649515e-20
0
7.96713521e-10
5.78249713e-21
-4.6259838e-20
1.05812593e-09
-5.78253771e-21
5.33406161e-26
1.40026446e-09
-1.15231504e-26
4.62603931e-20
1.84759503e-09
-1.5813791e-26
-4.62607005e-20
2.4312077e-09
5.78271598e-21
-9.25224402e-20
3.19038596e-09
-2.96934467e-26
9.25238568e-20
4.17438506e-09
-5.7830226e-21
-9.25262971e-20
5.4443687e-09
-5.55093502e-26
-9.25291013e-20
7.07539805e-09
5.78347507e-21
9.25319497e-20
9.15829862e-09
5.78386041e-21
9.25393346e-20
1.18011581e-08
-1.15689043e-20
-9.25432255e-20
1.51301607e-08
1.90532479e-25
-9.25519667e-20
1.92894891e-08
5.78603793e-21
1.85133992e-19
2.44401868e-08
-5.78767218e-21
4.35827988e-24
3.07582636e-08
-8.60910113e-21
0
3.84320455e-08
-1.43927095e-20
1.85262812e-19
4.76573073e-08
-1.738525e-20
0
5.86120504e-08
-1.15987756e-20
1.85456257e-19
7.13460971e-08
-1.74178356e-20
0
8.55174618e-08
-2.32552609e-20
9.96711455e-08
-2.32920014e-20
0
0
3.08304218e-11
0
-1.15648336e-20
9.39837292e-11
1.15648381e-20
0
1.62718092e-10
5.78242512e-21
2.31296921e-20
2.42942864e-10
-1.36879269e-27
2.31297159e-20
3.4174229e-10
-5.78243926e-21
-2.31297371e-20
4.67426788e-10
5.78245051e-21
-9.25191067e-20
6.30191174e-10
0
-4.62596652e-20
8.42869595e-10
0
-4.62597723e-20
1.12183243e-09
0
4.70702332e-26
1.48807047e-09
5.7825643e-21
-4.62602025e-20
1.96851119e-09
5.78260791e-21
4.62606336e-20
2.59760912e-09
5.78268177e-21
0
3.41924405e-09
-5.78280966e-21
0
4.4889453e-09
0
0
5.87643505e-09
-4.996771e-26
0
7.66845279e-09
-1.15668177e-20
9.25308077e-20
9.97179977e-09
-5.78382661e-21
1.8507307e-19
1.29165653e-08
5.78422273e-21
-9.25399285e-20
1.66596478e-08
5.78489507e-21
2.2483832e-24
2.13891159e-08
-2.42818128e-25
-9.25621174e-20
2.73309129e-08
-2.82580293e-21
2.77745748e-19
3.47610951e-08
-8.60464691e-21
-1.85207054e-19
4.40288075e-08
-1.73761157e-20
-2.77910967e-19
5.55952586e-08
-2.31825795e-20
0
7.00849856e-08
-1.74051116e-20
1.85562776e-19
8.82663782e-08
-1.74345484e-20
0
1.10517302e-07
-2.91222502e-20
1.34892497e-07
-1.7524914e-20
-1.86093878e-19
0
3.20095764e-11
0
-2.31296633e-20
9.75999665e-11
5.78241787e-21
-9.02860005e-28
1.6905865e-10
0
2.31296837e-20
2.52593361e-10
-1.11606292e-27
3.77995645e-27
3.55660549e-10
0
0
4.87035312e-10
0
0
6.57520738e-10
0
0
8.80767931e-10
5.7824775e-21
0
1.17425892e-09
-6.06303089e-27
-9.25196768e-20
1.56050669e-09
-5.78253757e-21
9.25201459e-20