/*--------------------------------*- C++ -*----------------------------------*\
| =========                 |                                                 |
| \\      /  F ield         | foam-extend: Open Source CFD                    |
|  \\    /   O peration     | Version:     4.1                                |
|   \\  /    A nd           | Web:         http://www.foam-extend.org         |
|    \\/     M anipulation  |                                                 |
\*---------------------------------------------------------------------------*/
FoamFile
{
    version     2.0;
    format      ascii;
    class       volScalarField;
    location    "0.15";
    object      p;
}
// * * * * * * * * * * * * * * * * * * * * * * * * * * * * * * * * * * * * * //

dimensions      [0 2 -2 0 0 0 0];

internalField   nonuniform List<scalar> 
35840
(
79.3655345
64.7212227
55.656217
51.3358222
48.3848835
46.0454732
44.2053414
42.6902752
41.36425
40.1569883
39.0311093
37.9636902
36.9400417
35.9504646
34.9881386
34.0479526
33.1259141
32.2188268
31.3241162
30.4397198
29.564001
28.6956904
27.8338305
26.9777244
26.1268882
25.2810082
24.4399058
23.6035099
72.4855452
62.0798023
54.8941993
51.1142962
48.3452752
46.0626993
44.242552
42.7375947
41.4135629
40.2033003
39.0728068
38.0005334
36.9722066
35.9783231
35.0121452
34.0685592
33.1435287
32.2338141
31.3367991
30.450372
29.5728592
28.7029693
27.8397349
26.9824555
26.1306464
25.2839929
24.4423121
23.6055227
69.29498
60.5308398
54.1769536
50.6751883
48.0906045
45.9338083
44.1858366
42.7236679
41.4251177
40.2289587
39.105658
38.0365207
37.0089366
36.0144335
35.046897
34.1015565
33.1745536
32.2627343
31.3635185
30.4748176
29.5949717
28.7226981
27.8570446
26.9973354
26.1431188
25.2941199
24.4501978
23.6113118
67.6780301
59.3425742
53.4442525
50.2177922
47.8251792
45.8074426
44.1475394
42.737658
41.4693137
40.2893148
39.1734051
38.1064589
37.0781145
36.0812704
35.1106139
34.161805
33.2311903
32.3156937
31.4127492
30.5202524
29.6365192
28.7602501
27.8904828
27.0265477
26.1680202
25.3146726
24.4664293
23.6233285
66.5774669
58.374711
52.7700439
49.7857235
47.5638565
45.6744507
44.1060008
42.7560014
41.5248621
40.3667165
39.2624309
38.200491
37.1730152
36.1745362
35.2007776
34.2480259
33.3129829
32.392757
31.4848647
30.5872246
29.6981492
28.8163269
27.9407838
27.0708524
26.206132
25.3464457
24.4917978
23.6423324
65.7799511
57.6482053
52.214281
49.3942202
47.3026976
45.5205864
44.0369722
42.7488457
41.5605788
40.4311264
39.3452107
38.2942655
37.2726288
36.2764349
35.3025201
34.3479194
33.4098233
32.4856483
31.5730972
30.6701954
29.7753182
28.8871881
28.0048569
27.127689
26.2553326
25.3876862
24.5248611
23.6671417
65.1809196
57.0901385
51.7549993
49.0439569
47.05079
45.3554221
43.9447667
42.7141052
41.5691971
40.4716146
39.4085375
38.3734697
37.36243
36.3728536
35.4025439
34.4492359
33.5106153
32.5844408
31.6686461
30.7614127
29.8612225
28.9668715
28.0774766
27.1924715
26.3115905
25.4348463
24.5624989
23.6950179
64.7146379
56.6481843
51.374173
48.737401
46.8177441
45.190766
43.840333
42.6599036
41.5553916
40.4895502
39.4509513
38.4344189
37.4371187
36.4574217
35.4938637
34.5447367
33.6081395
32.68213
31.7648525
30.8546407
29.9500835
29.0500605
28.1537696
27.2607366
26.3708124
25.4841621
24.6012407
23.7227567
64.3429386
56.292297
51.0584521
48.4731345
46.6079851
45.0343533
43.7329252
42.5953181
41.5270033
40.491078
39.4767902
38.479734
37.4978019
36.529988
35.5753355
34.6325354
33.6999882
32.7759715
31.8587863
30.946875
30.0389012
29.13381
28.2308709
27.3297035
26.430292
25.5329841
24.6384758
23.7477728
64.042056
56.0023098
50.7960058
48.247156
46.4227516
44.8908418
43.6292241
42.5277954
41.4913447
40.4828608
39.4918095
38.5141672
37.5482405
36.5934004
35.6490084
34.7140088
33.7869918
32.8663653
31.9505154
31.0379297
30.1272968
29.217586
28.3081083
27.3985619
26.4890664
25.5801771
24.6728755
23.7685302
63.7961168
55.7641823
50.5775028
48.0552359
46.2617662
44.7627465
43.5335818
42.4626762
41.4540831
40.4704575
39.5012047
38.5424186
37.592591
36.6512793
35.7180075
34.7918457
33.8714659
32.9553173
32.0417873
31.1293345
30.2166065
29.3025375
28.3864321
27.4680367
26.5475962
25.6258888
24.7042285
23.7844247
63.5940471
55.5679198
50.3957253
47.8933871
46.123841
44.6510574
43.448559
42.4035159
41.4192852
40.4580962
39.5091404
38.5684586
37.6345662
36.7070639
35.7855122
34.8689952
33.9561689
33.0454307
32.1350785
31.2234567
30.3090884
29.3907941
28.4678028
27.5398564
26.6072991
25.6711419
24.7330828
23.795468
63.4278109
55.4061425
50.2449836
47.7579988
46.0073401
44.5558092
43.3754824
42.352543
41.3897345
40.448847
39.5187866
38.5954407
37.6772411
36.7637277
35.854398
34.9482574
34.0438548
33.1394398
32.233126
31.3230438
30.4074872
29.4850584
28.5548138
27.6164108
26.6702442
25.7175539
24.760477
23.8020156
63.2913573
55.2732134
50.1207135
47.6458793
45.9104654
44.4764614
43.3148434
42.3110239
41.3672317
40.4448461
39.5324688
38.6257834
37.7230727
36.8237443
35.92716
35.0321709
34.137132
33.2400539
32.3387629
31.431059
30.5148789
29.5884694
28.6505783
27.7006573
26.7390657
25.7672454
24.7878265
23.8046179
63.1799746
55.1646914
50.0191781
47.5542172
45.8313919
44.4121283
43.2665676
42.2795316
41.3528334
40.4474925
39.5518187
38.6612762
37.7739656
36.8891209
36.00592
35.1229951
34.2384343
33.3499206
32.4548836
31.5506594
30.6346691
29.7046259
28.7587784
27.7961914
26.8170444
25.8229111
24.8169586
23.8039907
63.0898773
55.0769728
49.937248
47.4805189
45.7683296
44.3617185
43.2301947
42.2581345
41.3470289
40.4575977
39.5778919
38.7031647
37.8313295
36.9614321
36.092434
35.2227054
34.3500085
33.4716151
32.5844442
31.6852175
30.7706485
29.8376832
28.8838085
27.907432
26.9083166
25.8880221
24.8502643
23.8010703
63.0179344
55.0070514
49.8722428
47.4225469
45.7195449
44.3240165
43.2049937
42.2465244
41.349862
40.475492
39.6112508
38.7522102
37.8961163
37.0418282
36.1880834
35.3329707
34.4738839
33.6076118
32.7304501
31.8383395
30.9270564
29.992481
29.0309765
28.0398946
27.0181997
25.9671578
24.8909676
23.7971405
62.9614864
54.9523542
49.8218156
47.3782646
45.6833624
44.2977273
43.1900349
42.2440997
41.3610141
40.5010945
39.6520187
38.8087262
37.9688272
37.1310202
36.2938401
35.4550995
34.6118078
33.7602194
32.895904
32.0138486
31.1086264
30.1746762
29.2067475
28.2005536
27.153651
26.0664996
24.9435462
23.7940529
62.9182203
54.9106283
49.7838701
47.3457926
45.6581582
44.2815003
43.1842347
42.2500204
41.3798568
40.5339597
39.699917
38.872588
38.0494983
37.2292422
36.4102009
35.5899506
34.7651354
33.9314599
33.0836942
32.2157083
31.3205816
30.390856
29.4190179
28.3983043
27.3239038
26.1945551
25.0143786
23.7945701
62.8860835
54.8798627
49.7565018
47.3233743
45.642351
44.2739429
43.1863845
42.2632426
41.4054893
40.5733142
39.7542776
38.9432238
38.137672
37.3361919
36.5370945
35.7378017
34.9346637
34.1228767
33.2963937
32.4478463
31.5685356
30.6485854
29.6773914
28.6445376
27.5413576
26.3632701
25.1128044
23.8029447
62.8632263
54.8582351
49.7379582
47.3093524
45.6343969
44.2736306
43.1951696
42.2825466
41.4367743
40.6180737
39.8140457
39.0196051
38.2323576
37.450955
36.6737603
35.8981765
35.1204007
34.3352483
33.5359345
32.7138258
31.8582254
30.9563055
29.9933771
28.9537829
27.8227651
26.5897248
25.2530117
23.8262867
62.8479646
54.8440784
49.7266131
47.302156
45.6327884
44.2791145
43.2091888
42.3065733
41.4723581
40.6668559
39.8777901
39.1002348
38.3319893
37.5719211
36.8186088
36.0696338
35.3212681
34.5681929
33.8031167
33.0162911
32.1949728
31.3229492
30.3803684
29.3442884
28.1905902
26.8981957
25.4563269
23.8761787
62.8387586
54.8358615
49.7209542
47.300296
45.6360568
44.2889359
43.2269934
42.3338447
41.5106925
40.7180119
39.9437217
39.1831458
38.4343956
37.6967086
36.9690809
36.249533
35.5347413
34.8196507
34.0969114
33.356098
32.5827155
31.7570707
30.8532388
29.838636
28.6751654
27.3237654
25.7545138
23.9683104
62.8342049
54.8321805
49.7195807
47.3023657
45.6427872
44.3016647
43.2471061
42.3627891
41.5500797
40.7696668
40.0097282
39.2659245
38.5367979
37.8221196
37.1215313
36.4338074
35.7564582
35.0852621
34.4135343
33.731025
33.0223624
32.2649997
31.4267828
30.4636094
29.3182713
27.9228058
26.2085006
24.1420815
62.8330474
54.831761
49.7211973
47.3070669
45.6516482
44.3159174
43.2680446
42.3917958
41.5887285
40.8197801
40.0734382
39.3457716
38.6358575
37.944155
37.27118
36.616802
35.979866
35.3577107
34.7453377
34.1340447
33.5092771
32.8474205
32.1113667
31.2449224
30.1675545
28.7708877
26.925158
24.5113908
62.8341512
54.8334669
49.7246558
47.3132167
45.6614054
44.3303783
43.2883789
42.4192741
41.6248242
40.8662314
40.1323209
39.4196143
38.7277945
38.058125
37.4121876
36.7912577
36.1960198
35.6261784
35.0796876
34.5513175
34.0301109
33.4950305
32.9077818
32.2013429
31.2644066
29.9217298
27.9490061
25.0555196
62.8365129
54.8363196
49.7289663
47.3197581
45.6709471
44.3438507
43.3067849
42.443721
41.6566157
40.9069298
40.1838238
39.484276
38.8085936
38.1588908
37.5379159
36.9485519
36.3937051
35.8761532
35.3980831
34.9600154
34.5585603
34.1819621
33.8011052
33.3513318
32.6958009
31.553504
29.4414296
25.3711237
62.8393143
54.8395081
49.7332858
47.3258038
45.6793276
44.3553004
43.3221007
42.4637961
41.6825154
40.9399453
40.2255448
39.5367046
38.8743041
38.2412555
37.6414308
37.0793153
36.5601274
36.0900229
35.6761888
35.3266394
35.0493796
34.850141
34.7265353
34.6536786
34.5481152
34.1766339
32.8340725
27.6132492
72.6447732
62.2026704
54.9669638
51.1384626
48.3337524
46.0263373
44.1895236
42.6751813
41.3477674
40.1384465
39.0116863
37.9447252
36.9224001
35.9346113
34.974263
34.0360569
33.1158864
32.2105026
31.3173123
30.4342494
29.559684
28.692357
27.8313222
26.9758937
26.125598
25.2801322
24.4393277
23.6031235
64.9250522
59.5308008
54.6099041
51.3360277
48.66526
46.3525521
44.4579862
42.8868169
41.5140708
40.2695928
39.1166627
38.0305105
36.9937215
35.9946299
35.0252042
34.0795502
33.1531589
32.2425088
31.3448156
30.4578718
29.5799453
28.7097055
27.846159
26.9885897
26.136505
25.2895871
24.4476527
23.6106212
61.6846979
58.1815403
54.1886578
51.1184956
48.5842742
46.3764794
44.5229803
42.9614335
41.5889494
40.3407649
39.1825012
38.0909633
37.0492284
36.0456504
35.0721468
34.1227555
33.1928899
32.2789586
31.378122
30.4881327
29.6072306
28.734068
27.8676478
27.0072635
26.1524434
25.3029001
24.4584857
23.6191552
60.1082608
57.0256461
53.512157
50.7222874
48.3773841
46.3100754
44.5405653
43.0222249
41.6709238
40.4312062
39.2737955
38.1791871
37.1327046
36.1238206
35.1449763
34.1904307
33.2556519
32.3370196
31.4316354
30.5371879
29.6518606
28.7742626
27.9033696
27.038468
26.1791014
25.3250191
24.4761294
23.6324585
59.0023777
56.0265474
52.8276288
50.3082064
48.1372336
46.1937179
44.5127646
43.0522687
41.7367202
40.5179123
39.3712414
38.2806569
37.2340526
36.2226091
35.2398257
34.2805937
33.3407342
32.4168036
31.5059757
30.6059554
29.7149166
28.8314502
27.9545175
27.0834042
26.2176735
25.3571207
24.5017275
23.6516197
58.19504
55.2815399
52.2615921
49.9205541
47.8800977
46.0387492
44.4398852
43.0403891
41.7677603
40.5784519
39.4512825
38.3727101
37.3326983
36.3240452
35.3414111
34.3804852
33.4376218
32.50972
31.594165
30.6887879
29.7918367
28.9019486
28.0181204
27.1396762
26.2662331
25.3976639
24.5340573
23.675677
57.587917
54.7100075
51.7898385
49.5656452
47.6259976
45.8695712
44.3420004
42.9991364
41.7695959
40.6125083
39.5089853
38.4472239
37.4186652
36.4173446
35.4388813
34.4796758
33.5365984
32.6069139
31.6882601
30.778641
29.876424
28.9803349
28.0894462
27.2031603
26.3211881
25.4435213
24.5704003
23.7022751
57.1146503
54.257182
51.397865
49.2533561
47.3902758
45.7019524
44.2336384
42.9403439
41.7508256
40.6254529
39.5467113
38.5039595
37.4896459
36.4986757
35.5273754
34.5726932
33.631914
32.7026091
31.7826376
30.8701614
29.9636639
29.061964
28.164222
27.2699388
26.3789469
25.4913948
24.6077211
23.7286166
56.7372662
53.8931326
51.0736722
48.9842334
47.1781358
45.5434723
44.1238192
42.8730533
41.7195231
40.6239879
39.5696426
38.5465605
37.5478454
36.5689862
35.6068007
34.6586283
33.7220532
32.7948682
31.8750906
30.9609926
30.0511387
29.1444161
28.2400594
27.3376664
26.4372049
25.5390079
24.6437564
23.7524408
56.4319244
53.5970259
50.8047998
48.7542692
46.9908364
45.3984884
44.0187153
42.8041051
41.6823852
40.6142593
39.5831812
38.5795922
37.5969783
36.631187
35.6793475
34.7390505
33.808069
32.8843276
31.9659263
31.0511855
30.138697
29.2273733
28.3164902
27.4057232
26.4951766
25.5853935
24.6773421
23.7723749
56.1825213
53.3542447
50.5813816
48.5591684
46.8281517
45.2693309
43.922258
42.7382829
41.6444586
40.601207
39.5919576
38.6072689
37.6407994
36.6885762
35.7478896
34.8164569
33.892135
32.9728878
32.056817
31.1422171
30.2276387
29.3119574
28.3944431
27.4748207
26.5533191
25.6307025
24.7082709
23.7878189
55.9777635
53.1544007
50.395808
48.3947979
46.6888376
45.1568289
43.8367244
42.6787842
41.6094079
40.5886392
39.5997243
38.633174
37.6826675
36.7442743
35.8153226
34.8935468
33.9767873
33.0629552
32.1500659
31.2362997
30.320082
29.4001748
28.475772
27.5465914
26.6129595
25.6758721
24.7370129
23.7987143
55.8094301
52.9898259
50.2420854
48.2573881
46.5711866
45.0609222
43.763292
42.6276462
41.5797968
40.579389
39.6094105
38.6602263
37.7254334
36.8010429
35.8843243
34.9729341
34.0646045
33.1571016
32.2482581
31.3360393
30.4186415
29.4946071
28.5629551
27.6233167
26.6760666
25.7224275
24.764521
23.8053362
55.6713215
52.8546728
50.115429
48.1436218
46.4733457
44.9810191
43.702377
42.5860381
41.5573133
40.5754704
39.6232164
38.69072
37.7714335
36.8612409
35.9572786
35.0570476
34.1580899
33.2579356
32.3541299
31.4443073
30.5263053
29.5983094
28.6590271
27.7078813
26.7452076
25.7724273
24.7921527
23.8081799
55.5586107
52.7443483
50.0119439
48.0505932
46.3934468
44.9162025
43.653867
42.5544862
41.5429603
40.5782245
39.6427139
38.7263859
37.8225169
36.9268211
36.0362504
35.1480918
34.2596253
33.3680542
32.4705264
31.5642123
30.6464328
29.7148375
28.7676322
27.8038482
26.8236363
25.8285443
24.8217174
23.8079445
55.4674244
52.6551381
49.9283875
47.9757383
46.3296669
44.8653619
43.6172833
42.5330384
41.5372043
40.5884382
39.6689342
38.7684475
37.8800718
36.9993325
36.1229713
35.2480206
34.3714365
33.490011
32.6003826
31.6991073
30.7827977
29.8483347
28.8931581
27.9156368
26.9154976
25.8942658
24.8556273
23.8055894
55.3945663
52.5839561
49.8619975
47.9167677
46.2802479
44.8272693
43.5918863
42.5213786
41.5400808
40.6064337
39.7024338
38.8176609
37.9450392
37.0799155
36.218817
35.3584977
34.4955462
33.6262739
32.7466981
31.8525951
30.9396403
30.0036471
29.0409279
28.0487884
27.0261467
25.9742209
24.8971646
23.802462
55.3373288
52.5281714
49.8103687
47.8716075
46.2434966
44.8006215
43.5767424
42.518903
41.5512702
40.632132
39.7433388
38.8743347
38.0179167
37.1692828
36.3247612
35.4808313
34.6337013
33.7791522
32.9124782
32.0285046
31.1217047
30.1864503
29.2174363
28.2103221
27.1626038
26.0746723
24.9509077
23.8005265
55.293364
52.4854898
49.7713629
47.8383514
46.2177758
44.7840625
43.5707665
42.5247728
41.5701491
40.6650938
39.7913663
38.9383415
38.0987447
37.2676726
36.4413023
35.615882
34.7872598
33.9506717
33.100617
32.2308083
31.3342294
30.4033567
29.4306198
28.4091928
27.3341841
26.2042358
25.0233663
23.802691
55.2605954
52.4538714
49.743047
47.8152242
46.2014956
44.7761965
43.5727504
42.5379497
41.5958243
40.7045404
39.8458454
39.0091152
38.1870698
37.3747842
36.5683711
35.7639305
34.9570223
34.1423803
33.3136939
32.4634448
31.5828458
30.6619608
29.6901297
28.656864
27.5533906
26.3749901
25.1240104
23.8132885
55.2371572
52.4314747
49.7236489
47.8005566
46.1931067
44.7755978
43.5813848
42.5572225
41.6271508
40.7493823
39.9057262
39.08563
38.281902
37.4897048
36.7052096
35.9245037
35.1430005
34.3550615
33.5536479
32.7299877
31.8733081
30.970732
30.0075195
28.9679347
27.8370925
26.6042044
25.2672675
23.8396384
55.2213561
52.4166205
49.7115307
47.7927708
46.1910992
44.780823
43.5952777
42.5812211
41.662768
40.7982422
39.9695792
39.1663885
38.3816761
37.6108257
36.8502304
36.0961625
35.3441189
34.5883372
33.8212852
33.0330919
32.2109546
31.3386255
30.3962041
29.3606536
28.2076731
26.9159738
25.474261
23.8935292
55.2116478
52.4077714
49.7051742
47.7903755
46.1940094
44.7904219
43.6129675
42.6084582
41.7011321
40.849471
40.0356136
39.249423
38.4842207
37.7357656
37.0008748
36.2762675
35.5578548
34.8401514
34.1155836
33.3736243
32.5997418
31.7742238
30.8710896
29.8575734
28.6951271
27.3441124
25.7733304
23.9846757
55.2066255
52.4035222
49.7031782
47.791971
46.2004273
44.802952
43.6329651
42.6373679
41.7405449
40.9011923
40.1017161
39.332319
38.586756
37.8613253
37.1534964
36.4607513
35.7798467
35.1061467
34.432764
33.7493729
33.0405913
32.2838719
31.4469994
30.4855509
29.3415408
27.9455678
26.223528
24.1425046
55.2050155
52.4025953
49.704257
47.7962568
46.2090124
44.8170181
43.6537945
42.6663397
41.779214
40.9513646
40.1655136
39.4122747
38.6859405
37.9835025
37.3033121
36.6439558
36.0035394
35.3790074
34.765186
34.1533258
33.5288807
32.8682054
32.1339157
31.2691553
30.1924577
28.7942184
26.9356121
24.5025127
55.2056944
52.4038606
49.7072606
47.8020439
46.2185246
44.8313103
43.6740285
42.6937833
41.8153245
40.9978659
40.2244729
39.4862137
38.7779897
38.0976021
37.4444755
36.8186139
36.2199801
35.6479117
35.100227
34.5716988
34.0514103
33.5181462
32.9326679
32.2253796
31.2803163
29.9116514
27.8850233
24.9432312
55.2077013
52.4063513
49.7111917
47.808282
46.2278579
44.8446366
43.6923457
42.7181969
41.8471251
41.0386039
40.2760382
39.5509551
38.8588823
38.198477
37.5703376
36.9760878
36.4179331
35.8983215
35.4193691
34.9817128
34.5821647
34.208837
33.8314372
33.3806881
32.706961
31.4819426
29.158144
24.5647086
55.2102367
52.4092613
49.7152146
47.8140897
46.2360719
44.8559672
43.7075873
42.7382416
41.8730278
41.0716465
40.3178043
39.6034417
38.9246609
38.2809205
37.6739493
37.1069842
36.5845636
36.1125547
35.6981574
35.349685
35.0756573
34.8823276
34.7677832
34.7065344
34.6099821
34.2070428
32.7144346
26.315876
69.7276082
60.9191677
54.4813857
50.8769765
48.2004232
45.9676104
44.1592063
42.652916
41.3253734
40.1125425
38.9818461
37.9118775
36.8878017
35.8994582
34.9395414
34.0024908
33.0839531
32.1804811
31.2893369
30.4083567
29.5358526
28.6705356
27.8114474
26.9578988
26.1094143
25.2656846
24.4265282
23.5918643
61.9713772
58.4667452
54.4458404
51.3216858
48.7269469
46.4638111
44.5640537
42.9668589
41.5688589
40.3034207
39.1341574
38.0362297
36.9914261
35.9871117
35.014475
34.0670309
33.1398232
32.2290029
31.3315562
30.4451223
29.567871
28.6984128
27.8357229
26.9790708
26.1279565
25.2820538
24.4411653
23.6051881
58.7288293
57.2336825
54.2364765
51.2988649
48.8106111
46.6334907
44.7434239
43.1207931
41.6975187
40.4122733
39.2271548
38.1167638
37.062251
36.0501604
35.0710769
34.1181349
33.1861118
32.2709639
31.36954
30.4793829
29.598596
28.725748
27.859794
27.0000033
26.1458919
25.2971614
24.4536473
23.6152794
57.172842
56.1110775
53.6289046
50.9915082
48.6963625
46.6590691
44.84277
43.2463318
41.8286137
40.5402198
39.3473695
38.2275004
37.1635428
36.1426827
35.155621
34.1954588
33.2568766
32.3357
31.4286453
30.533138
29.6471844
28.7692778
27.8983224
27.0335633
26.1745198
25.3209238
24.472664
23.6297396
56.0701005
55.109873
52.961152
50.6189689
48.5050673
46.5895932
44.8572014
43.3117294
41.9227024
40.6497311
39.4636901
38.3449628
37.2787184
36.2536051
35.2611878
34.2950912
33.350307
32.4228218
31.5094155
30.6075232
29.7151326
28.8307082
27.9531279
27.0816248
26.2157299
25.3552163
24.5000455
23.6503187
55.25802
54.3575062
52.3964449
50.246703
48.2675135
46.4525023
44.8005362
43.3141054
41.9654684
40.7198721
39.5520014
38.4445268
37.3844434
36.3618584
35.3693761
34.4013425
33.4532544
32.5214436
31.6029153
30.6952469
29.7965146
28.9052383
28.0203359
27.14108
26.2670552
25.3981123
24.534323
23.6759324
54.6441406
53.7768548
51.9177253
49.8920501
48.0174834
46.2876762
44.7070401
43.2772299
41.9711366
40.7570929
39.6124668
38.5216748
37.4730962
36.4580079
35.4699066
34.5037858
33.5556186
32.6220868
31.7004483
30.7884608
29.8843312
28.9866792
28.0945071
27.2071717
26.3243548
25.4460297
24.5724238
23.7039745
54.1638437
53.314778
51.5165877
49.574771
47.7798918
46.1190024
44.5980234
43.2182967
41.9524773
40.7701718
39.6503484
38.578661
37.5444872
36.5399641
35.5592783
34.5979413
33.6523119
32.7193593
31.796553
30.8818058
29.9734425
29.0701801
28.1711134
27.2757013
26.3837506
25.495394
24.6110598
23.7314305
53.7800717
52.9425882
51.1838124
49.2994416
47.5636495
45.9572281
44.485486
43.149016
41.91977
40.7676509
39.6724533
38.6206257
37.6022251
36.6099892
35.6386072
34.6839788
33.7427509
32.812103
31.889654
30.9734215
30.0618079
29.1535973
28.2479583
27.3444472
26.4430063
25.543954
24.6479621
23.7560142
53.469299
52.6396811
50.9075464
49.0634263
47.3716905
45.8083304
44.3771295
43.077583
41.8808086
40.7565558
39.6849354
38.6528248
37.6506943
36.6716655
35.7107599
34.7641386
33.828638
32.9015656
31.9806196
31.0638615
30.1497171
29.2369921
28.3248943
27.4130568
26.5015559
25.590916
24.6820946
23.7764391
53.215416
52.3913395
50.6779981
48.8630003
47.2046168
45.6754033
44.2775268
43.0093205
41.8410662
40.7421515
39.6926864
38.6797056
37.693881
36.7285389
35.778884
34.8412177
33.9124661
32.9899788
32.0714549
31.1549275
30.2387789
29.3217758
28.4031166
27.4824778
26.5600578
25.6366005
24.7133932
23.7922246
53.0070118
52.1869917
50.4874315
48.6941466
47.06145
45.559527
44.189161
42.9476055
41.8043549
40.7283527
39.6995338
38.7049108
37.7352003
36.783794
35.8459544
34.918014
33.996891
33.0798865
32.164614
31.2489921
30.3312764
29.4101157
28.484629
27.5544836
26.619971
25.6820636
24.7424305
23.8033969
52.8357186
52.0187687
50.3296534
48.5530191
46.9405097
45.4606904
44.113252
42.894516
41.7732719
40.7180106
39.7084107
38.7313548
37.7774963
36.8401885
35.9146523
34.9971557
34.084518
33.1738996
32.2627329
31.3487209
30.4298882
29.5046627
28.5719853
27.631432
26.6833387
25.7289004
24.7702201
23.8102784
52.6951969
51.8806413
50.1996841
48.4361728
46.8398838
45.3782687
44.0501895
42.8512013
41.7494893
40.7131224
39.7214971
38.7613097
37.823083
36.9000596
35.9873432
35.0810595
34.1778449
33.2746275
32.3685537
31.4569977
30.5376238
29.6085002
28.6682529
27.7162439
26.7527634
25.779199
24.7981406
23.813375
52.5804994
51.7678651
50.0934625
48.3405722
46.7576184
45.3112815
43.9998095
42.8181477
41.7339803
40.7150044
39.7403419
38.7964836
37.8737868
36.9653388
36.0660741
35.1719143
34.2792393
33.3846552
32.4849154
31.5769302
30.6578466
29.7251927
28.7770864
27.8124917
26.8315057
25.835634
24.8279941
23.8133659
52.487656
51.6766063
50.0076119
48.2635402
46.6918055
45.2585513
43.9615795
42.7953622
41.7271803
40.7244194
39.7659557
38.8380809
37.9309782
37.0375603
36.1525626
35.2716584
34.3909127
33.5065266
32.6147471
31.7118695
30.7943298
29.8588833
28.9028748
27.9245953
26.9237056
25.9016769
24.8621591
23.811152
52.4133946
51.6036861
49.9392662
48.2026956
46.6406141
45.218791
43.9347123
42.7824919
41.7290984
40.7416692
39.7988777
38.8868428
37.9955875
37.1178546
36.2481711
35.3819446
34.5148813
33.6427062
32.7610458
31.8654163
30.951314
30.0144211
29.0509438
28.0580945
27.0347055
25.9819209
24.9038453
23.8079576
52.3549501
51.5464041
49.8859415
48.1558935
46.6022919
45.1906486
43.918235
42.7789036
41.7393925
40.766657
39.8392201
38.9430701
38.0681043
37.2069226
36.353866
35.504079
34.6528915
33.7955017
32.9268169
32.0414029
31.1335512
30.1974926
29.2277991
28.220011
27.1715055
26.0825652
24.9574958
23.8055121
52.309932
51.5024147
49.845442
48.1211746
46.5751575
45.1727307
43.9110322
42.783735
41.7574211
40.7989299
39.8866947
39.0066288
38.1485604
37.3049994
36.470148
35.6389227
34.8063006
33.9669414
33.114962
32.2438167
31.3463021
30.4147394
29.4414076
28.419317
27.3433967
26.2121143
25.0293633
23.8062712
52.2762329
51.4696409
49.815793
48.0967257
46.5575886
45.1636147
43.9118739
42.79593
41.7822769
40.8377053
39.9406238
39.0769465
38.2365031
37.4117897
36.5969486
35.7867573
34.9759137
34.1585836
33.3280799
32.4766276
31.5952457
30.6738207
29.7014954
28.6675389
27.5628815
26.3824862
25.1284496
23.8136372
52.2519659
51.4462154
49.7951946
48.0808524
46.5480142
45.1618564
43.9194347
42.8142641
41.8128129
40.8818887
39.9999552
39.153002
38.3309482
37.5263813
36.7335117
35.947115
35.1617537
34.3712323
33.5681454
32.7434692
31.8862292
30.9833383
30.0197831
28.9794463
27.8469236
26.6108228
25.2685716
23.8334679
52.2354235
51.4304426
49.7819911
48.0719613
46.5449115
45.166
43.932313
42.8373678
41.8476671
40.930104
40.0632676
39.233304
38.4303324
37.6471686
36.8782559
36.1185674
35.362764
34.6045435
33.8360257
33.0471011
32.2247625
31.3525075
30.4100378
29.3736792
28.2181812
26.9210794
25.4698773
23.8754605
52.2250536
51.4207756
49.7746554
48.0685536
46.5468088
45.1745911
43.9490507
42.8637584
41.8853016
40.9807146
40.1287768
39.3158889
38.5324895
37.7717774
37.0286319
36.2984897
35.5764478
34.8565103
34.1307905
33.3885588
32.6150983
31.7904053
30.8879276
29.8738252
28.7076864
27.3471894
25.7579736
23.9418654
52.2194469
51.415806
49.7717827
48.0692265
46.5522958
45.1861951
43.9681697
42.8918795
41.924033
41.0318513
40.1943763
39.3983498
38.6346479
37.8970173
37.1810047
36.4828323
35.7984758
35.1228378
34.448785
33.7658727
33.0586149
32.3042021
31.4697143
30.5091583
29.3611571
27.950658
26.1940321
24.0537665
52.2173351
51.4142649
49.7720941
48.0726823
46.5600441
45.1994314
43.9882069
42.9201364
41.9620786
41.0814829
40.2577038
39.4778957
38.7334763
38.0188961
37.3306025
36.6659532
36.0223233
35.3962754
34.7825134
34.1723448
33.5513372
32.8957796
32.1676448
31.3079179
30.2301596
28.8163575
26.9096806
24.385248
52.2175947
51.415024
49.7744439
48.0777454
46.5688305
45.2130036
44.0077489
42.9469516
41.9976362
41.1275005
40.3162387
39.5514617
38.8252007
38.1327279
37.471587
36.8405934
36.2390502
35.6660386
35.1194688
34.5945211
34.0809222
33.5580975
32.9867058
32.2941723
31.356338
29.9693541
27.8706267
24.7982172
52.2192583
51.4171036
49.7778355
48.0833838
46.5775632
45.2257314
44.0254882
42.9708375
42.0289693
41.1678258
40.3674387
39.6158792
38.9058103
38.2333727
37.5973095
36.9981036
36.4373925
35.9175408
35.4410856
35.0096849
34.6219299
34.2685781
33.9221397
33.5134223
32.8838915
31.6569245
29.1879902
24.0489231
52.2215273
51.4196929
49.7814403
48.0887299
46.5853132
45.2365972
44.0402795
42.9904692
42.0545035
41.2005403
40.4089114
39.6681029
38.9713567
38.3156271
37.7008121
37.1290571
36.6044306
36.1329157
35.7225392
35.383466
35.1277797
34.9680116
34.9125958
34.9518512
35.0168218
34.8162998
33.4241254
25.9528721
68.5015461
60.1076103
54.0771473
50.6816005
48.1287772
45.9698864
44.1917367
42.6904004
41.3565823
40.1330889
38.9910155
37.9108833
36.87859
35.8840705
34.9198255
33.9799844
33.0598621
32.1557113
31.264545
30.3840068
29.5122688
28.6479466
27.7900209
26.9377643
26.0906745
25.2484179
24.4107842
23.5776565
60.7953882
57.6979714
54.1134746
51.2054804
48.7306137
46.5405274
44.6640921
43.0604969
41.6463344
40.3627892
39.1763453
38.0637905
37.0074169
35.9943335
35.0152515
34.0632126
33.132838
32.2199224
31.3211687
30.4339996
29.5564266
28.6869501
27.8244737
26.9682238
26.1176743
25.2724799
24.4324217
23.5973684
57.5757138
56.5017922
53.9811703
51.2812858
48.9156237
46.80987
44.9317181
43.2840743
41.8274933
40.5113528
39.2996508
38.1677443
37.096762
36.0724133
35.0843061
34.1247879
33.1880304
32.2695179
31.3657387
30.4739681
29.5921145
28.7186091
27.8523154
26.9924457
26.1384821
25.2901031
24.4471218
23.6094387
56.046933
55.4163272
53.4225167
51.0322491
48.8650429
46.9021291
45.0948185
43.4645069
42.003358
40.6753664
39.4487729
38.3016096
37.2167646
36.1803737
35.1818297
34.2131812
33.2683324
32.3425267
31.4320483
30.5340098
29.6461926
28.7669296
27.8950153
27.0296233
26.1702295
25.3165374
24.4684121
23.6258253
54.9605165
54.4343475
52.7785571
50.6905177
48.7089222
46.8688431
45.1437877
43.5602478
42.122635
40.8055403
39.5822164
38.433481
37.3443355
36.3022345
35.2972466
34.3217906
33.3699891
32.4371955
31.5197311
30.6147067
29.7198811
28.8335561
27.9544962
27.0818585
26.2151265
25.3540437
24.4985507
23.6487278
54.1549664
53.6902172
52.2251355
50.3340127
48.4893244
46.7494186
45.1036114
43.5770968
42.1772299
40.885092
39.6781862
38.5395489
37.4558559
36.4159039
35.4106804
34.4332149
33.4780598
32.5408706
31.6181733
30.7072154
29.8058471
28.9124318
28.0257791
27.1450894
26.2699013
25.4000388
24.5355569
23.6766874
53.5426204
53.1123974
51.7504833
49.985413
48.246637
46.5920188
45.0171832
43.5465423
42.1880157
40.9261915
39.7416159
38.6191031
37.5466318
36.5141058
35.5133448
34.5379586
33.5829188
32.6441916
31.7185311
30.8033517
29.8966299
28.9968302
28.1028502
27.2139779
26.3298521
25.4504213
24.5758995
23.7067164
53.0614133
52.6501395
51.3494641
49.6691654
48.0110155
46.4256087
44.9103959
43.4896406
42.1709538
40.9403426
39.7801659
38.6765314
37.6183805
36.5964459
35.6032137
34.6327828
33.6804808
32.7425377
31.8159011
30.8981276
29.9873035
29.0819866
28.1811663
27.2842329
26.3909509
25.5014287
24.6160825
23.735589
52.6757312
52.2764526
51.0151537
49.3926581
47.7941379
46.2634598
44.7976054
43.4202075
42.1380873
40.937561
39.8019215
38.7181226
37.6757743
36.6661956
35.6823696
34.7187765
33.7710224
32.8355377
31.9094107
30.9902953
30.0763487
29.1661913
28.2588832
27.3539103
26.4511711
25.5509587
24.6539319
23.7610685
52.3628155
51.9716445
50.7368031
49.154594
47.6003858
46.1129817
44.6878793
43.3476464
42.0981866
40.9256374
39.8136578
38.7496642
37.723679
36.7273999
35.7541443
34.7986566
33.8567323
32.9249284
32.0004106
31.0808734
30.1644942
29.2499118
28.3362228
27.4229873
26.5102351
25.5984627
24.6886123
23.7820257
52.1069023
51.7214149
50.5051352
48.9519377
47.4311717
45.9780677
44.5865099
43.2778896
42.0572027
40.9101916
39.8205317
38.7758128
37.7662593
36.7837735
35.8218606
34.8754112
33.9403147
33.0131725
32.0911527
31.1719209
30.2536104
29.3348195
28.4146325
27.4926502
26.5690211
25.6444592
24.7202349
23.7981296
51.89671
51.5153655
50.3126368
48.780985
47.2858974
45.8601745
44.4963182
43.2146068
42.019182
40.8953088
39.8264886
38.8002932
37.8069917
36.838553
35.8885459