/*--------------------------------*- C++ -*----------------------------------*\
| =========                 |                                                 |
| \\      /  F ield         | foam-extend: Open Source CFD                    |
|  \\    /   O peration     | Version:     4.1                                |
|   \\  /    A nd           | Web:         http://www.foam-extend.org         |
|    \\/     M anipulation  |                                                 |
\*---------------------------------------------------------------------------*/
FoamFile
{
    version     2.0;
    format      ascii;
    class       surfaceScalarField;
    location    "0.15";
    object      phi;
}
// * * * * * * * * * * * * * * * * * * * * * * * * * * * * * * * * * * * * * //

dimensions      [0 3 -1 0 0 0 0];

internalField   nonuniform List<scalar> 
102656
(
0.000395261058
5.30266659e-05
5.17122759e-05
0.00028160981
5.8261151e-05
5.53900968e-05
0.000200388698
4.23597393e-05
3.88613723e-05
0.000148890814
2.74475582e-05
2.40503254e-05
0.000117044084
1.73735102e-05
1.44732199e-05
9.68275219e-05
1.12252185e-05
8.99134279e-06
8.35634273e-05
7.39685055e-06
5.86724342e-06
7.46533311e-05
4.89366916e-06
4.01642646e-06
6.84857841e-05
3.24744987e-06
2.92009665e-06
6.40453038e-05
2.16802107e-06
2.27245862e-06
6.07216076e-05
1.44984455e-06
1.87385082e-06
5.81502872e-05
9.61988419e-07
1.60933105e-06
5.61073709e-05
6.24661115e-07
1.41825405e-06
5.44509324e-05
3.87677373e-07
1.26875992e-06
5.3087968e-05
2.18803351e-07
1.14416003e-06
5.19547023e-05
9.73337412e-08
1.03593107e-06
5.10050721e-05
9.9147384e-09
9.39714996e-07
5.02043745e-05
-5.23354424e-08
8.53032966e-07
4.95254918e-05
-9.53775049e-08
7.74260295e-07
4.89464203e-05
-1.23100725e-07
7.02172394e-07
4.84489046e-05
-1.38193912e-07
6.35709838e-07
4.80175908e-05
-1.4266538e-07
5.73979194e-07
4.7639409e-05
-1.38126838e-07
5.16308484e-07
4.7303089e-05
-1.25971759e-07
4.62291358e-07
4.69987814e-05
-1.0750145e-07
4.11808357e-07
4.67177612e-05
-8.39867771e-08
3.65006171e-07
4.64522069e-05
-5.66801519e-08
3.22233465e-07
-2.6795974e-08
2.83946124e-07
4.6195056e-05
0.000461998979
2.7711552e-05
6.3316135e-05
0.000392853788
5.2245453e-05
7.5160888e-05
0.000323887378
5.01973626e-05
6.11287862e-05
0.000266760502
4.04811913e-05
4.4093242e-05
0.000223841531
3.04883702e-05
2.98041102e-05
0.000193127747
2.2352681e-05
1.9586321e-05
0.000171291681
1.62926633e-05
1.29402524e-05
0.000155550225
1.18537396e-05
8.78138359e-06
0.000143966496
8.60987864e-06
6.22129944e-06
0.00013522901
6.25328017e-06
4.65222594e-06
0.000128466876
4.54187645e-06
3.67010037e-06
0.00012311087
3.29098693e-06
3.02700482e-06
0.000118785592
2.36786512e-06
2.58207256e-06
0.000115237898
1.67895545e-06
2.25641383e-06
0.000112292706
1.15891813e-06
2.00507581e-06
0.000109825245
7.62653386e-07
1.80214075e-06
0.000107743581
4.59187622e-07
1.6323909e-06
0.000105977463
2.27243865e-07
1.48653808e-06
0.000104471454
5.21495154e-08
1.35848285e-06
0.000103180936
-7.63548078e-08
1.24377191e-06
0.000102069271
-1.65441683e-07
1.13891251e-06
0.000101105642
-2.20171473e-07
1.04113423e-06
0.000100263598
-2.44413295e-07
9.48330073e-07
9.95200044e-05
-2.41458752e-07
8.59078912e-07
9.8854269e-05
-2.14469528e-07
7.72702061e-07
9.82477775e-05
-1.66760465e-07
6.89263796e-07
9.76835401e-05
-1.01921779e-07
6.09477917e-07
-2.38028577e-08
5.34521138e-07
9.71460251e-05
0.000447769666
1.5254757e-05
6.46871289e-05
0.000388238386
3.58418715e-05
7.59348607e-05
0.000335581402
4.06667529e-05
6.21875936e-05
0.000291761977
3.76314829e-05
4.66691331e-05
0.000257079649
3.18652556e-05
3.33054416e-05
0.000230710187
2.56751058e-05
2.30470367e-05
0.000210916048
2.01497356e-05
1.59370655e-05
0.000195906326
1.55965644e-05
1.12668965e-05
0.000184294623
1.19672126e-05
8.25436778e-06
0.00017511079
9.1255715e-06
6.31154014e-06
0.000167698112
6.92291677e-06
5.03163705e-06
0.000161615223
5.22099764e-06
4.15287622e-06
0.000156559665
3.90363921e-06
3.51978244e-06
0.000152317071
2.87881542e-06
3.04273231e-06
0.000148730417
2.07631392e-06
2.66925668e-06
0.000145681153
1.44411533e-06
2.36780146e-06
0.000143077207
9.44449125e-07
2.11868403e-06
0.000140845291
5.5022932e-07
1.90893062e-06
0.000138925861
2.42210337e-07
1.72936885e-06
0.000137269555
6.89214694e-09
1.57305862e-06
0.000135834818
-1.65119946e-07
1.43441579e-06
0.000134586209
-2.80360866e-07
1.30879763e-06
0.00013349291
-3.43548509e-07
1.19243475e-06
0.000132527573
-3.58559035e-07
1.08243643e-06
0.000131665471
-3.29240286e-07
9.76872227e-07
0.000130883879
-2.59998168e-07
8.7482963e-07
0.00013016171
-1.56133532e-07
7.76379539e-07
-2.39231131e-08
6.82418842e-07
0.000129479411
0.000440472457
9.9592984e-06
6.48230012e-05
0.000375873808
2.46432571e-05
7.57972631e-05
0.000324700705
3.07161996e-05
6.1123656e-05
0.000286197478
3.08559517e-05
4.5278758e-05
0.000257840143
2.81079868e-05
3.21146032e-05
0.000237175168
2.41797201e-05
2.21603601e-05
0.000221933173
2.00696066e-05
1.53221234e-05
0.000210345267
1.6301694e-05
1.0882775e-05
0.000201206127
1.30542457e-05
8.05210564e-06
0.000193750002
1.0339271e-05
6.24242508e-06
0.000187507926
8.1079429e-06
5.05704859e-06
0.000182194517
6.29164444e-06
4.24276043e-06
0.000177628801
4.81973407e-06
3.64961974e-06
0.000173686438
3.62808e-06
3.19309649e-06
0.000170274339
2.66249264e-06
2.82592017e-06
0.000167317872
1.87934525e-06
2.52123656e-06
0.00016475446
1.24469421e-06
2.26316706e-06
0.000162530321
7.32793803e-07
2.04157499e-06
0.00016059868
3.24563248e-07
1.84928885e-06
0.000158918611
6.25458505e-09
1.68070694e-06
0.000157454116
-2.31746629e-07
1.53112168e-06
0.00015617335
-3.9600244e-07
1.3964065e-06
0.000155047835
-4.9099697e-07
1.27296269e-06
0.000154051736
-5.20220141e-07
1.15775777e-06
0.000153161227
-4.87187423e-07
1.04845406e-06
0.000152353986
-3.96296178e-07
9.43536948e-07
0.000151608892
-2.5342733e-07
8.42386421e-07
-6.62205776e-08
7.452484e-07
0.00015090594
0.000437877933
7.06310719e-06
6.50182584e-05
0.00036845651
1.7799731e-05
7.62649493e-05
0.00031472934
2.34034646e-05
6.10399047e-05
0.000276412952
2.4787183e-05
4.43851561e-05
0.000250111952
2.36914212e-05
3.07175651e-05
0.0002323676
2.13235971e-05
2.06004742e-05
0.000220182964
1.84489155e-05
1.38053259e-05
0.000211416816
1.5551929e-05
9.51591242e-06
0.000204719531
1.28748337e-05
6.87669645e-06
0.000199295313
1.05044459e-05
5.25904183e-06
0.000194701177
8.45420094e-06
4.24787704e-06
0.000190702803
6.70581578e-06
3.584202e-06
0.000187177639
5.22785601e-06
3.11704091e-06
0.000184057311
3.98532439e-06
2.76308168e-06
0.000181297356
2.94477347e-06
2.47767315e-06
0.000178862807
2.07671199e-06
2.23718233e-06
0.000176722104
1.35642894e-06
2.02896729e-06
0.000174845058
7.63987035e-07
1.84585275e-06
0.000173202514
2.8385087e-07
1.68325655e-06
0.000171766611
-9.5620053e-08
1.53777749e-06
0.000170511034
-3.82763029e-07
1.40659357e-06
0.000169411104
-5.83256795e-07
1.28718427e-06
0.000168443723
-7.00867953e-07
1.17725129e-06
0.000167587192
-7.38414106e-07
1.07472463e-06
0.000166820931
-6.98780003e-07
9.77852589e-07
0.000166125216
-5.85894701e-07
8.85313612e-07
0.000165480997
-4.0552981e-07
7.96321466e-07
-1.6578611e-07
7.10687636e-07
0.000164869874
0.00043660592
5.27635035e-06
6.51808373e-05
0.000364323225
1.34340601e-05
7.6648366e-05
0.000308253367
1.82407423e-05
6.12325804e-05
0.000268852318
2.00658179e-05
4.41224142e-05
0.000242608774
1.98797262e-05
3.00552379e-05
0.00022572675
1.85072321e-05
1.96983885e-05
0.000214857337
1.65268564e-05
1.27914711e-05
0.000207590112
1.43386588e-05
8.48049512e-06
0.000202405101
1.21801015e-05
5.87974166e-06
0.000198410183
1.01669319e-05
4.33243179e-06
0.000195114377
8.34599566e-06
3.40401018e-06
0.000192265632
6.72926233e-06
2.82529765e-06
0.000189742131
5.31126063e-06
2.44009467e-06
0.000187486831
4.0784671e-06
2.16215727e-06
0.000185471646
3.01458097e-06
1.94537649e-06
0.000183679313
2.10335845e-06
1.76568604e-06
0.000182095088
1.33002261e-06
1.61063105e-06
0.000180703609
6.81893488e-07
1.47357319e-06
0.000179488172
1.48621352e-07
1.35066643e-06
0.000178431021
-2.77844376e-07
1.23937529e-06
0.000177513844
-6.03403301e-07
1.13781711e-06
0.000176718151
-8.32038962e-07
1.04447514e-06
0.000176025607
-9.66367679e-07
9.58042882e-07
0.00017541819
-1.00836394e-06
8.77365611e-07
0.000174878219
-9.60242122e-07
8.01432766e-07
0.000174388334
-8.25409764e-07
7.29399095e-07
0.000173931509
-6.09339839e-07
6.60633765e-07
-3.20199268e-07
5.94779963e-07
0.000173491142
0.000435883999
4.09314114e-06
6.52992106e-05
0.000361910341
1.04689198e-05
7.69387988e-05
0.000304146073
1.45076295e-05
6.14973808e-05
0.000263616684
1.64100634e-05
4.41851436e-05
0.000236881859
1.67247455e-05
2.98898049e-05
0.000220030166
1.59963566e-05
1.93625674e-05
0.00020955832
1.46536212e-05
1.23450808e-05
0.000202913882
1.3013691e-05
7.96940536e-06
0.000198469276
1.12856018e-05
5.33910509e-06
0.000195260101
9.59022576e-06
3.78587988e-06
0.000192749452
7.99107144e-06
2.86557245e-06
0.00019065689
6.51828837e-06
2.30353554e-06
0.000188844222
5.18334449e-06
1.94058341e-06
0.000187246664
3.98768065e-06
1.68834381e-06
0.000185834438
2.92776827e-06
1.49903871e-06
0.000184592441
1.99799209e-06
1.34736249e-06
0.000183510237
1.19225193e-06
1.21997522e-06
0.000182577666
5.04835665e-07
1.10962814e-06
0.000181783303
-6.9103624e-08
1.01208801e-06
0.000181114184
-5.33389946e-07
9.24664196e-07
0.000180555984
-8.90683406e-07
8.45479645e-07
0.000180093331
-1.14258519e-06
7.73198955e-07
0.000179710151
-1.29001165e-06
7.06823129e-07
0.000179389931
-1.3337339e-06
6.45588556e-07
0.000179115934
-1.27512441e-06
5.88878336e-07
0.000178871402
-1.11703394e-06
5.36155033e-07
0.00017863979
-8.64658388e-07
4.86929659e-07
-5.26226055e-07
4.40770314e-07
0.000178405046
0.000435447553
3.25475701e-06
6.53908313e-05
0.00036040326
8.34362897e-06
7.71695846e-05
0.000301438969
1.17189612e-05
6.17529595e-05
0.000259974463
1.35266162e-05
4.43479532e-05
0.000232680088
1.40943856e-05
2.99247347e-05
0.0002156032
1.37774975e-05
1.92957472e-05
0.000205160961
1.28855404e-05
1.22103185e-05
0.00019872202
1.16627832e-05
7.78984842e-06
0.00019459436
1.02831602e-05
5.13010151e-06
0.000191767735
8.85971102e-06
3.55713876e-06
0.000189674718
7.46139069e-06
2.62269666e-06
0.000188014407
6.1282639e-06
2.05033543e-06
0.000186634665
4.88259116e-06
1.6804948e-06
0.000185461518
3.73616112e-06
1.42466601e-06
0.000184459681
2.6948241e-06
1.23478135e-06
0.000183611322
1.76122114e-06
1.08512886e-06
0.000182905239
9.36416716e-07
9.61918783e-07
0.000182331745
2.20872953e-07
8.57455599e-07
0.000181880557
-3.85031491e-07
7.67116322e-07
0.000181539959
-8.80676468e-07
6.87883556e-07
0.000181296605
-1.26499714e-06
6.17667752e-07
0.000181135642
-1.53662313e-06
5.55000365e-07
0.000181040903
-1.69412275e-06
4.98849165e-07
0.000180995157
-1.73648582e-06
4.48497005e-07
0.000180980439
-1.66382404e-06
4.03417282e-07
0.000180978463
-1.47821729e-06
3.63158348e-07
0.000180971128
-1.1845785e-06
3.2725439e-07
-7.91368496e-07
2.95188757e-07
0.000180941081
0.000435162454
2.63029255e-06
6.54620105e-05
0.000359404894
6.75285512e-06
7.73483348e-05
0.000299587251
9.57123126e-06
6.19653729e-05
0.000257388078
1.12091569e-05
4.45166332e-05
0.000229583322
1.18777537e-05
3.0021387e-05
0.000212216965
1.18106034e-05
1.93332507e-05
0.000201665103
1.12277286e-05
1.22096738e-05
0.000195249399
1.03135316e-05
7.76495556e-06
0.000191236181
9.20784286e-06
5.088534e-06
0.000188583788
8.00971031e-06
3.50239372e-06
0.000186703392
6.78610338e-06
2.55568311e-06
0.000185279783
5.58078913e-06
1.97108312e-06
0.000184151024
4.42202437e-06
1.58932545e-06
0.000183236407
3.32829621e-06
1.32248195e-06
0.000182496211
2.31210725e-06
1.12291223e-06
0.000181909932
1.38237912e-06
9.65120796e-07
0.000181464986
5.45985287e-07
8.35376538e-07
0.000181151193
-1.91279616e-07
7.25944833e-07
0.000180958206
-8.24175774e-07
6.32130538e-07
0.000180874307
-1.34757668e-06
5.50798603e-07
0.000180885921
-1.75639849e-06
4.7978681e-07
0.000180977434
-2.04569722e-06
4.17559709e-07
0.000181131216
-2.21095592e-06
3.63050546e-07
0.000181327824
-2.24862238e-06
3.15527833e-07
0.000181546424
-2.15689259e-06
2.7446786e-07
0.000181765423
-1.93664006e-06
2.39422358e-07
0.000181963296
-1.59234806e-06
2.09896418e-07
-1.1328967e-06
1.85288233e-07
0.000182119536
0.000434965848
2.14745802e-06
6.55169873e-05
0.000358713776
5.51887354e-06
7.74860538e-05
0.000298278864
7.87095507e-06
6.21351881e-05
0.000255508768
9.31325578e-06
4.46659979e-05
0.000227266213
9.9917328e-06
3.01285759e-05
0.000209609607
1.0063226e-05
1.94039832e-05
0.000198896846
9.68332479e-06
1.2257164e-05
0.000192422135
8.98948305e-06
7.79875933e-06
0.000188424586
8.0916701e-06
5.11372082e-06
0.000185840256
7.07320483e-06
3.52083541e-06
0.000184064219
5.99494661e-06
2.56719357e-06
0.00018277021
4.90012098e-06
1.97467617e-06
0.000181788742
3.81934511e-06
1.58414807e-06
0.000181034011
2.77487215e-06
1.3081547e-06
0.000180463035
1.78358241e-06
1.09950053e-06
0.000180053425
8.58982738e-07
9.33005792e-07
0.000179791705
1.25664647e-08
7.95138001e-07
0.000179667442
-7.45335194e-07
6.78318186e-07
0.000179670287
-1.40490934e-06
5.77888052e-07
0.000179788467
-1.95655082e-06
4.90793406e-07
0.000180007948
-2.39080555e-06
4.1492548e-07
0.000180311958
-2.69850851e-06
3.48799989e-07
0.000180680803
-2.87121112e-06
2.91409336e-07
0.00018109199
-2.90188803e-06
2.42077978e-07
0.0001815207
-2.78590663e-06
2.00303587e-07
0.000181940628
-2.5221988e-06
1.65629268e-07
0.000182325188
-2.11446156e-06
1.37552729e-07
-1.57214465e-06
1.15448995e-07
0.000182648987
0.000434825016
1.76285726e-06
6.55595849e-05
0.000358217508
4.53361319e-06
7.75927692e-05
0.000297325934
6.49304931e-06
6.226948e-05
0.000254110904
7.73767671e-06
4.4790609e-05
0.000225501696
8.37390225e-06
3.0227039e-05
0.000207576606
8.50970033e-06
1.94786152e-05
0.0001966882
8.25533934e-06
1.2316392e-05
0.000190115839
7.71252364e-06
7.84931896e-06
0.000186081663
6.96647184e-06
5.1593744e-06
0.000183506486
6.08540844e-06
3.5629724e-06
0.000181773494
5.12230953e-06
2.60562965e-06
0.000180547763
4.1173066e-06
2.00854472e-06
0.000179653702
3.10084038e-06
1.61256618e-06
0.000179001378
2.09669268e-06
1.33050341e-06
0.000178545241
1.12427294e-06
1.1154457e-06
0.000178261561
2.00234125e-07
9.42428316e-07
0.000178136424
-6.60397807e-07
7.98099625e-07
0.0001781595
-1.44336704e-06
6.74954514e-07
0.00017832078
-2.13461252e-06
5.68421681e-07
0.000178608682
-2.72000392e-06
4.75550555e-07
0.000179008831
-3.18528309e-06
3.94327374e-07
0.000179503254
-3.51630856e-06
3.23375825e-07
0.000180069924
-3.69964917e-06
2.61767868e-07
0.000180682706
-3.72356932e-06
2.08898746e-07
0.000181311834
-3.57938378e-06
1.64348587e-07
0.000181924972
-3.2630753e-06
1.27738701e-07
0.000182488856
-2.77695961e-06
9.86136859e-08
-2.13107003e-06
7.63571077e-08
0.000182971424
0.000434720758
1.44926765e-06
6.55928324e-05
0.00035784938
3.72886602e-06
7.76761248e-05
0.000296611915
5.35498238e-06
6.23755328e-05
0.000253046657
6.4109068e-06
4.48920276e-05
0.000224132476
6.97668135e-06
3.03114027e-05
0.000205967172
7.12826479e-06
1.95467393e-05
0.000194904567
6.94421981e-06
1.23737239e-05
0.00018821705
6.4994809e-06
7.90055893e-06
0.000184116863
5.85935265e-06
5.20730627e-06
0.000181514991
5.07859096e-06
3.60868902e-06
0.000179786337
4.20189781e-06
2.64906565e-06
0.00017858957
3.26496155e-06
2.04911203e-06
0.000177744395
2.29639527e-06
1.64961999e-06
0.000177157666
1.31987949e-06
1.36354204e-06
0.000176781911
3.55896325e-07
1.14413091e-06
0.000176592558
-5.76990185e-07
9.66576172e-07
0.000176575682
-1.46110575e-06
8.17583235e-07
0.000176721516
-2.27886634e-06
6.89664425e-07
0.000177020808
-3.01224828e-06
5.78342111e-07
0.000177462536
-3.64245518e-06
4.80722831e-07
0.000178032277
-4.14988063e-06
3.9485564e-07
0.000178710973
-4.51445023e-06
3.19444875e-07
0.000179474092
-4.71643444e-06
2.53665172e-07
0.000180291311
-4.7378096e-06
1.97021255e-07
0.000181126896
-4.56416763e-06
1.49198429e-07
0.000181940949
-4.18704322e-06
1.09914781e-07
0.000182691555
-3.60636387e-06
7.87965736e-08
-2.83255237e-06
5.52844505e-08
0.000183337752
0.000434641237
1.1889751e-06
6.56190553e-05
0.000357568126
3.06001013e-06
7.77419675e-05
0.000296062289
4.40098371e-06
6.24598357e-05
0.00025221717
5.28189012e-06
4.49741366e-05
0.000223048419
5.76359044e-06
3.03818411e-05
0.000204670818
5.90019602e-06
1.96056705e-05
0.000193442352
5.74791645e-06
1.24247684e-05
0.00018663305
5.36175894e-06
7.94702417e-06
0.00018244991
4.79123505e-06
5.25125714e-06
0.000179798015
4.07950191e-06
3.65098321e-06
0.000178046916
3.26329808e-06
2.68969872e-06
0.000176850922
2.37327085e-06
2.08768474e-06
0.000176026464
1.4351754e-06
1.68567799e-06
0.000175478211
4.71417314e-07
1.39671517e-06
0.000175157546
-4.97622456e-07
1.17418339e-06
0.000175039707
-1.45247941e-06
9.93326705e-07
0.000175111417
-2.37364951e-06
8.40832048e-07
0.000175364095
-3.24082147e-06
7.09275658e-07
0.000175789885
-4.03222948e-06
5.94190088e-07
0.000176378964
-4.72423642e-06
4.92700966e-07
0.000177117421
-5.29124355e-06
4.02904719e-07
0.000177985473
-5.70607702e-06
3.23573773e-07
0.000178956092
-5.9410218e-06
2.5396866e-07
0.000179994233
-5.96964961e-06
1.93698413e-07
0.000181056984
-5.76948562e-06
1.42567064e-07
0.000182094903
-5.32538535e-06
1.0042281e-07
0.000183054749
-4.6332332e-06
6.70224588e-08
-3.70327471e-06
4.1917634e-08
0.000183883553
0.000434578878
9.70074947e-07
6.56400227e-05
0.000357347211
2.49695593e-06
7.77947206e-05
0.000295628001
3.59255291e-06
6.25276406e-05
0.000251555108
4.31384157e-06
4.5040942e-05
0.000222171698
4.70672477e-06
3.04402753e-05
0.000203606554
4.80970197e-06
1.96556383e-05
0.00019222274
4.66294596e-06
1.24687844e-05
0.000185290441
4.30657822e-06
7.9874795e-06
0.000181014342
3.7776239e-06
5.28970938e-06
0.000178296332
3.10940398e-06
3.68810753e-06
0.000176502828
2.33129243e-06
2.72550918e-06
0.000175285505
1.46870758e-06
2.12188713e-06
0.000174458852
5.43901071e-07
1.71792705e-06
0.000173926404
-4.22891769e-07
1.42675719e-06
0.000173639299
-1.41234303e-06
1.20182462e-06
0.000173573482
-2.4050055e-06
1.01834282e-06
0.000173717169
-3.38039384e-06
8.63055549e-07
0.000174063884
-4.31606918e-06
7.28531331e-07
0.000174608182
-5.18681591e-06
6.10287033e-07
0.000175342504
-5.96400937e-06
5.05450112e-07
0.000176254459
-6.6153409e-06
4.1214146e-07
0.000177324337
-7.10513691e-06
3.29180888e-07
0.00017852296
-7.39555174e-06
2.55906789e-07
0.000179810179
-7.44890613e-06
1.92036541e-07
0.000181134502
-7.23132849e-06
1.37519783e-07
0.000182434357
-6.7176224e-06
9.23820747e-08
0.000183641442
-5.89689107e-06
5.6571328e-08
-4.77793416e-06
2.98129334e-08
0.000184686288
0.000434528657
7.84353207e-07
6.56570646e-05
0.000357169025
2.01889836e-06
7.78376899e-05
0.000295275963
2.90260268e-06
6.25830116e-05
0.00025101388
3.48001659e-06
4.50959078e-05
0.000221446826
3.78480828e-06
3.04889709e-05
0.00020271484
3.84380648e-06
1.96978816e-05
0.000191185978
3.68539689e-06
1.25064106e-05
0.000184131825
3.3384507e-06
8.02228074e-06
0.000179756487
2.8300675e-06
5.32289341e-06
0.000176960432
2.18524178e-06
3.72021715e-06
0.000175108536
1.42662505e-06
2.75656349e-06
0.000173851184
5.74410063e-07
2.15165023e-06
0.000173002039
-3.53109772e-07
1.74615539e-06
0.000172464494
-1.33859515e-06
1.45324833e-06
0.00017219045
-2.36463041e-06
1.2263305e-06
0.000172157517
-3.41275018e-06
1.04067663e-06
0.000172356483
-4.46239315e-06
8.83032078e-07
0.000172784242
-5.48975504e-06
7.45924843e-07
0.00017343922
-6.46663962e-06
6.24844558e-07
0.000174317738
-7.35943056e-06
5.16901795e-07
0.000175410599
-8.12841933e-06
4.20216929e-07
0.000176699662
-8.72784043e-06
3.33640352e-07
0.000178154569
-9.10704716e-06
2.56587602e-07
0.000179730064
-9.2133051e-06
1.88904322e-07
0.000181364601
-8.99659204e-06
1.30726472e-07
0.000182981162
-8.4165068e-06
8.23235278e-08
0.000184491158
-7.45081338e-06
4.3925471e-08
-6.10428205e-06
1.55317834e-08
0.000185801974
0.000434487163
6.2601829e-07
6.56711716e-05
0.000357021592
1.61114076e-06
7.7873328e-05
0.000294983417
2.31174867e-06
6.26290292e-05
0.000250560806
2.76080066e-06
4.51418266e-05
0.000220833936
2.98167286e-06
3.05300061e-05
0.00020195179
2.99212068e-06
1.97338318e-05
0.000190286883
2.81162232e-06
1.25386812e-05
0.000183112668
2.46039626e-06
8.05226957e-06
0.00017863361
1.95755429e-06
5.35157035e-06
0.000175749838
1.32097966e-06
3.7480339e-06
0.000173825741
5.67182947e-07
2.78353956e-06
0.000172511352
-2.88833333e-07
2.17763264e-06
0.000171620391
-1.23311371e-06
1.77096441e-06
0.000171057039
-2.25185611e-06
1.47661376e-06
0.000170774838
-3.3304738e-06
1.24804307e-06
0.000170754078
-4.45254667e-06
1.06055598e-06
0.000170989396
-5.5985571e-06
9.00844535e-07
0.00017148264
-6.74439746e-06
7.6139689e-07
0.00017223806
-7.85970907e-06
6.37648092e-07
0.000173258188
-8.90621896e-06
5.26659319e-07
0.000174539593
-9.83635641e-06
4.26531166e-07
0.000176068246
-1.0592628e-05
3.3613387e-07
0.000177814636
-1.11083972e-05
2.54959623e-07
0.000179729199
-1.13108747e-05
1.8300698e-07
0.000181739076
-1.11271285e-05
1.20659022e-07
0.00018374769
-1.0493655e-05
6.85347236e-08
0.000185638839
-9.36926109e-06
2.72975233e-08
-7.74963114e-06
-2.60912871e-09
0.000187286797
0.000434452036
4.90905632e-07
6.56830762e-05
0.000356896632
1.26309987e-06
7.79034442e-05
0.000294734487
1.80589965e-06
6.26679942e-05
0.000250172746
2.14168078e-06
4.51808608e-05
0.000220304263
2.285054e-06
3.05651024e-05
0.000201285083
2.2465096e-06
1.97647911e-05
0.00018949147
2.03860803e-06
1.2566627e-05
0.000182198759
1.67477257e-06
8.07833541e-06
0.000177612177
1.16757176e-06
5.37656377e-06
0.000174632083
5.2873294e-07
3.77234088e-06
0.000172622956
-2.30921555e-07
2.80723145e-06
0.000171235069
-1.10157649e-06
2.20063097e-06
0.000170282882
-2.07392869e-06
1.79300108e-06
0.000169671995
-3.13843145e-06
1.49746182e-06
0.000169358335
-4.28434766e-06
1.26753393e-06
0.000169325879
-5.49856226e-06
1.07847062e-06
0.000169574474
-6.76407605e-06
9.16922487e-07
0.000170112789
-8.05801055e-06
7.75296653e-07
0.000170953389
-9.34925159e-06
6.48940998e-07
0.00017210819
-1.05958636e-05
5.34842958e-07
0.000173583306
-1.17425287e-05
4.31054821e-07
0.000175372902
-1.27186688e-05
3.36445058e-07
0.000177452053
-1.34381289e-05
2.50580153e-07
0.000179769246
-1.38017131e-05
1.73645931e-07
0.000182239859
-1.3704107e-05
1.06366199e-07
0.000184742956
-1.30466344e-05
4.98825495e-08
0.000187124518
-1.17563736e-05
5.54975237e-09
-9.81023942e-06
-2.54678863e-08
0.000189210594
0.00043442163
3.75960556e-07
6.56933148e-05
0.000356788364
9.67003302e-07
7.79293618e-05
0.000294518025
1.37463611e-06
6.27016021e-05
0.000249833275
1.61179153e-06
4.52146395e-05
0.0002198371
1.68562047e-06
3.05956082e-05
0.000200691086
1.60069414e-06
1.97918304e-05
0.000188774489
1.36407519e-06
1.25911296e-05
0.000181364273
9.83736859e-07
8.10125208e-06
0.000176666464
4.66797074e-07
5.39858392e-06
0.000173581796
-1.80458328e-07
3.79385905e-06
0.000171475054
-9.52572177e-07
2.8283936e-06
0.000169997098
-1.84485496e-06
2.22123477e-06
0.000168963399
-2.85304884e-06
1.81281971e-06
0.000168281282
-3.9726636e-06
1.5163487e-06
0.00016790961
-5.19797572e-06
1.28529894e-06
0.000167836914
-6.52075253e-06
1.09488597e-06
0.000168069584
-7.92841987e-06
9.31672062e-07
0.00016862513
-9.40151473e-06
7.87956934e-07
0.000169527431
-1.09105255e-05
6.58971329e-07
0.000170801934
-1.24119539e-05
5.41586359e-07
0.000172469633
-1.38439903e-05
4.33761218e-07
0.000174539166
-1.51225308e-05
3.34328366e-07
0.000176996672
-1.61385594e-05
2.42923399e-07
0.000179793877
-1.67588891e-05
1.59971977e-07
0.000182835982
-1.68329025e-05
8.66895055e-08
0.000185972791
-1.6208469e-05
2.50254606e-08
0.000188998538
-1.47595618e-05
-2.25589088e-08
-1.24258101e-05
-5.36361344e-08
0.000191667744
0.000434394797
2.78887838e-07
6.57022751e-05
0.000356692761
7.17003558e-07
7.79520359e-05
0.000294326236
1.01007828e-06
6.2731082e-05
0.000249530827
1.16284089e-06
4.52443596e-05
0.000219417736
1.17617406e-06
3.06225376e-05
0.000200152843
1.04981118e-06
1.98157765e-05
0.000188117656
7.86381461e-07
1.26128817e-05
0.000180590344
3.89426182e-07
8.12162251e-06
0.000175777491
-1.38582932e-07
5.4182336e-06
0.000172580052
-7.9626803e-07
3.81324887e-06
0.000170363115
-1.58312775e-06
2.84749264e-06
0.000168778029
-2.49963227e-06
2.23986364e-06
0.000167641135
-3.54702918e-06
1.83087372e-06
0.000166861505
-4.72670956e-06
1.53367487e-06
0.00016640111
-6.03929065e-06
1.30170984e-06
0.000166253532
-7.48329001e-06
1.11011447e-06
0.000166432782
-9.05301453e-06
9.4534314e-07
0.000166967265
-1.0735553e-05
7.99553555e-07
0.000167895533
-1.25066008e-05
6.67806554e-07
0.000169261659
-1.43248744e-05
5.46793304e-07
0.000171108755
-1.61254015e-05
4.34313876e-07
0.000173469253
-1.78121389e-05
3.2911014e-07
0.000176351054
-1.92512371e-05
2.30876964e-07
0.000179719291
-2.02674938e-05
1.40368317e-07
0.000183475054
-2.06482227e-05
5.95572967e-08
0.00018743561
-2.01607117e-05
-8.31282418e-09
0.000191325004
-1.85900799e-05
-5.88762712e-08
-1.58032159e-05
-8.74235428e-08
0.000194789834
0.000434370753
1.97904143e-07
6.57102305e-05
0.000356607064
5.08550445e-07
7.79721412e-05
0.000294153777
7.06063748e-07
6.27573019e-05
0.000249257459
7.88286474e-07
4.52708719e-05
0.000219036043
7.50970106e-07
3.06466204e-05
0.000199658674
5.89949118e-07
1.98372319e-05
0.000187508379
3.04293807e-07
1.26323829e-05
0.000179864018
-1.06145592e-07
8.13993335e-06
0.000174932294
-6.42936262e-07
5.43607844e-06
0.000171614094
-1.30892105e-06
3.83085356e-06
0.000169274427
-2.10826821e-06
2.86480691e-06
0.000167564613
-3.04668552e-06
2.25686771e-06
0.000166301401
-4.13128093e-06
1.84746373e-06
0.000165395138
-5.37015181e-06
1.54970481e-06
0.000164810536
-6.77165937e-06
1.31696926e-06
0.000164546134
-8.34318691e-06
1.124298e-06
0.000164624114
-1.00889971e-05
9.58000656e-07
0.000165085401
-1.20068772e-05
8.10035758e-07
0.000165986569
-1.40829873e-05
6.7521681e-07
0.000167396233
-1.62844966e-05
5.49957819e-07
0.000169388892
-1.85498516e-05
4.31789894e-07
0.000172034027
-2.07765419e-05
3.1926769e-07
0.000175378253
-2.28075805e-05
2.12116574e-07
0.000179418717
-2.44195138e-05
1.11556482e-07
0.00018406752
-2.53178007e-05
2.07757333e-08
0.000189112331
-2.51507408e-05
-5.47822263e-08
0.000194184644
-2.35553506e-05
-1.07041879e-07
-2.02575021e-05
-1.26771563e-07
0.000198765702
0.000434348981
1.31555922e-07
6.57173667e-05
0.000356529466
3.37928461e-07
7.79901366e-05
0.000293997152
4.57528176e-07
6.27808496e-05
0.000249008004
4.82682638e-07
4.52947523e-05
0.000218685496
4.05126863e-07
3.06683521e-05
0.000199201144
2.17702025e-07
1.9856599e-05
0.000186938823
-8.34005537e-08
1.26500159e-05
0.000179177519
-5.01497171e-07
8.1566566e-06
0.00017412353
-1.04130202e-06
5.45235502e-06
0.000170677166
-1.70937441e-06
3.8468174e-06
0.000168202611
-2.51430772e-06
2.88059415e-06
0.000166350375
-3.4669097e-06
2.27246013e-06
0.000164936694
-4.5803637e-06
1.86276381e-06
0.000163872138
-5.87015173e-06
1.56455582e-06
0.000163123041
-7.35370045e-06
1.33113669e-06
0.00016269194
-9.0495042e-06
1.13741711e-06
0.000162608721
-1.09752854e-05
9.69505714e-07
0.000162927398
-1.31446321e-05
8.19076607e-07
0.000163725194
-1.55613571e-05
6.80573169e-07
0.000165101326
-1.82105982e-05
5.4996864e-07
0.000167172753
-2.10456082e-05
4.2432844e-07
0.000170063797
-2.39694193e-05
3.01833091e-07
0.000173885472
-2.68114158e-05
1.8216013e-07
0.000178699078
-2.93003052e-05
6.71855256e-08
0.000184460327
-3.10410351e-05
-3.80144202e-08
0.000190946271
-3.151245e-05
-1.24234304e-07
0.000197675247
-3.01081878e-05
-1.76138351e-07
-2.62829209e-05
-1.7560291e-07
0.000203876268
0.000434329174
7.85803794e-08
6.57238018e-05
0.000356458884
2.01903159e-07
7.80063148e-05
0.000293854294
2.60024183e-07
6.28020943e-05
0.000248779469
2.41149418e-07
4.53163581e-05
0.000218362426
1.3413804e-07
3.0688032e-05
0.000198776307
-7.0344263e-08
1.9874166e-05
0.00018640527
-3.78519692e-07
1.2666157e-05
0.000178527745
-7.95919653e-07
8.17194769e-06
0.00017334913
-1.32977213e-06
5.46708519e-06
0.000169768363
-1.98992358e-06
3.86131692e-06
0.000167147904
-2.7888465e-06
2.89499706e-06
0.000165136354
-3.74210583e-06
2.28674616e-06
0.000163548042
-4.86888389e-06
1.87683205e-06
0.000162292037
-6.19238256e-06
1.578235e-06
0.000161334265
-7.7400761e-06
1.34414703e-06
0.000160679028
-9.54356602e-06
1.14929764e-06
0.000160361788
-1.16375564e-05
9.79509409e-07
0.000160448361
-1.40572416e-05
8.26035855e-07
0.000161037306
-1.68330452e-05
6.82741607e-07
0.000162263024
-1.99811782e-05
5.4486088e-07
0.000164296457
-2.34876544e-05
4.08611973e-07
0.00016733919
-2.72835587e-05
2.71406214e-07
0.000171603511
-3.12083832e-05
1.32645911e-07
0.000177267991
-3.49599732e-05
-4.8115456e-09
0.000184396908
-3.8037697e-05
-1.32255082e-07
0.000192811887
-3.96937835e-05
-2.33645224e-07
0.000201916644
-3.89332646e-05
-2.7968023e-07
-3.46911578e-05
-2.39855503e-07
0.000210564737
0.000434311185
3.77905506e-08
6.57296043e-05
0.000356394798
9.74481774e-08
7.8020842e-05
0.000293724248
1.09338469e-07
6.28212357e-05
0.00024857055
5.89807176e-08
4.53358668e-05
0.000218065486
-6.66528107e-08
3.07058552e-05
0.000198383213
-2.78274951e-07
1.98902043e-05
0.000185907515
-5.83703341e-07
1.26808825e-05
0.000177915792
-9.89925672e-07
8.18572909e-06
0.000172611893
-1.50624247e-06
5.4803695e-06
0.000168892525
-2.14499295e-06
3.87443712e-06
0.000166117405
-2.92179466e-06
2.90806824e-06
0.000163931854
-3.85629833e-06
2.29974404e-06
0.000162146468
-4.97314472e-06
1.88964629e-06
0.000160666407
-6.3029849e-06
1.59066293e-06
0.000159454083
-7.88358947e-06
1.35583609e-06
0.000158511736
-9.76085924e-06
1.15963954e-06
0.000157876005
-1.19893048e-05
9.8747855e-07
0.000157620067
-1.46312677e-05
8.29963262e-07
0.000157860637
-1.77536353e-05
6.80018825e-07
0.000158767808
-2.14199355e-05
5.31585257e-07
0.000160575211
-2.56743047e-05
3.79246179e-07
0.000163585381
-3.05123775e-05
2.18648671e-07
0.000168160065
-3.58310103e-05
4.79440074e-08
0.000174679394
-4.13503002e-05
-1.29002359e-07
0.000183441399
-4.65028494e-05
-2.96852728e-07
0.00019445627
-5.02840077e-05
-4.24646443e-07
0.000207092574
-5.11219684e-05
-4.47599342e-07
-4.69179457e-05
-3.23133127e-07
0.000219642495
0.000434295034
7.92663828e-09