/*--------------------------------*- C++ -*----------------------------------*\
| =========                 |                                                 |
| \\      /  F ield         | foam-extend: Open Source CFD                    |
|  \\    /   O peration     | Version:     4.1                                |
|   \\  /    A nd           | Web:         http://www.foam-extend.org         |
|    \\/     M anipulation  |                                                 |
\*---------------------------------------------------------------------------*/
FoamFile
{
    version     2.0;
    format      ascii;
    class       pointVectorField;
    location    "0.15";
    object      pointMotionU;
}
// * * * * * * * * * * * * * * * * * * * * * * * * * * * * * * * * * * * * * //

dimensions      [0 1 -1 0 0 0 0];

internalField   nonuniform List<vector> 
40832
(
(0 0 0)
(0 0 0)
(0 0 0)
(0 0 0)
(0 0 0)
(0 0 0)
(0 0 0)
(0 0 0)
(0 0 0)
(0 0 0)
(0 0 0)
(0 0 0)
(0 0 0)
(0 0 0)
(0 0 0)
(0 0 0)
(0 0 0)
(0 0 0)
(0 0 0)
(0 0 0)
(0 0 0)
(0 0 0)
(0 0 0)
(0 0 0)
(0 0 0)
(0 0 0)
(0 0 0)
(0 0 0)
(0 0 0)
(0 0 0)
(0 0 0)
(0 0 0)
(0 0 0)
(0 0 0)
(0 0 0)
(0 0 0)
(0 0 0)
(0 0 0)
(0 0 0)
(0 0 0)
(0 0 0)
(0 0 0)
(0 0 0)
(0 0 0)
(0 0 0)
(0 0 0)
(0 0 0)
(0 0 0)
(0 0 0)
(0 0 0)
(0 0 0)
(0 0 0)
(0 0 0)
(0 0 0)
(0 0 0)
(0 0 0)
(0 0 0)
(0 0 0)
(0 0 0)
(0 0 0)
(0 0 0)
(0 0 0)
(0 0 0)
(0 0 0)
(0 0 0)
(0 0 0)
(0 0 0)
(0 0 0)
(0 0 0)
(0 0 0)
(0 0 0)
(0 0 0)
(0 0 0)
(0 0 0)
(0 0 0)
(0 0 0)
(0 0 0)
(0 0 0)
(0 0 0)
(0 0 0)
(0 0 0)
(0 0 0)
(0 0 0)
(0 0 0)
(0 0 0)
(0 0 0)
(0 0 0)
(0 0 0)
(0 0 0)
(0 0 0)
(0 0 0)
(0 0 0)
(0 0 0)
(0 0 0)
(0 0 0)
(0 0 0)
(0 0 0)
(0 0 0)
(0 0 0)
(0 0 0)
(0 0 0)
(0 0 0)
(0 0 0)
(0 0 0)
(0 0 0)
(0 0 0)
(0 0 0)
(0 0 0)
(0 0 0)
(0 0 0)
(0 0 0)
(0 0 0)
(0 0 0)
(0 0 0)
(0 0 0)
(0 0 0)
(0 0 0)
(0 0 0)
(0 0 0)
(0 0 0)
(0 0 0)
(0 0 0)
(0 0 0)
(0 0 0)
(0 0 0)
(0 0 0)
(0 0 0)
(0 0 0)
(0 0 0)
(0 0 0)
(0 0 0)
(0 0 0)
(0 0 0)
(0 0 0)
(0 0 0)
(0 0 0)
(0 0 0)
(0 0 0)
(0 0 0)
(0 0 0)
(0 0 0)
(0 0 0)
(0 0 0)
(0 0 0)
(0 0 0)
(0 0 0)
(0 0 0)
(0 0 0)
(0 0 0)
(0 0 0)
(0 0 0)
(0 0 0)
(0 0 0)
(0 0 0)
(0 0 0)
(0 0 0)
(0 0 0)
(0 0 0)
(0 0 0)
(0 0 0)
(0 0 0)
(0 0 0)
(0 0 0)
(0 0 0)
(0 0 0)
(0 0 0)
(0 0 0)
(0 0 0)
(0 0 0)
(0 0 0)
(0 0 0)
(0 0 0)
(0 0 0)
(0 0 0)
(0 0 0)
(0 0 0)
(0 0 0)
(0 0 0)
(0 0 0)
(0 0 0)
(0 0 0)
(0 0 0)
(0 0 0)
(0 0 0)
(0 0 0)
(0 0 0)
(0 0 0)
(0 0 0)
(0 0 0)
(0 0 0)
(0 0 0)
(0 0 0)
(0 0 0)
(0 0 0)
(0 0 0)
(0 0 0)
(0 0 0)
(0 0 0)
(0 0 0)
(0 0 0)
(0 0 0)
(0 0 0)
(0 0 0)
(0 0 0)
(0 0 0)
(0 0 0)
(0 0 0)
(0 0 0)
(0 0 0)
(0 0 0)
(0 0 0)
(0 0 0)
(0 0 0)
(0 0 0)
(0 0 0)
(0 0 0)
(0 0 0)
(0 0 0)
(0 0 0)
(0 0 0)
(0 0 0)
(0 0 0)
(0 0 0)
(0 0 0)
(0 0 0)
(0 0 0)
(0 0 0)
(0 0 0)
(0 0 0)
(0 0 0)
(0 0 0)
(0 0 0)
(0 0 0)
(0 0 0)
(0 0 0)
(0 0 0)
(0 0 0)
(0 0 0)
(0 0 0)
(0 0 0)
(0 0 0)
(0 0 0)
(0 0 0)
(0 0 0)
(0 0 0)
(0 0 0)
(0 0 0)
(0 0 0)
(0 0 0)
(0 0 0)
(0 0 0)
(0 0 0)
(0 0 0)
(0 0 0)
(0 0 0)
(0 0 0)
(0 0 0)
(0 0 0)
(0 0 0)
(0 0 0)
(0 0 0)
(0 0 0)
(0 0 0)
(0 0 0)
(0 0 0)
(0 0 0)
(0 0 0)
(0 0 0)
(0 0 0)
(0 0 0)
(0 0 0)
(0 0 0)
(0 0 0)
(0 0 0)
(0 0 0)
(0 0 0)
(0 0 0)
(0 0 0)
(0 0 0)
(0 0 0)
(0 0 0)
(0 0 0)
(0 0 0)
(0 0 0)
(0 0 0)
(0 0 0)
(0 0 0)
(0 0 0)
(0 0 0)
(0 0 0)
(0 0 0)
(0 0 0)
(0 0 0)
(0 0 0)
(0 0 0)
(0 0 0)
(0 0 0)
(0 0 0)
(0 0 0)
(0 0 0)
(0 0 0)
(0 0 0)
(0 0 0)
(0 0 0)
(0 0 0)
(0 0 0)
(0 0 0)
(0 0 0)
(0 0 0)
(0 0 0)
(0 0 0)
(0 0 0)
(0 0 0)
(0 0 0)
(0 0 0)
(0 0 0)
(0 0 0)
(0 0 0)
(0 0 0)
(0 0 0)
(0 0 0)
(0 0 0)
(0 0 0)
(0 0 0)
(0 0 0)
(0 0 0)
(0 0 0)
(0 0 0)
(0 0 0)
(0 0 0)
(0 0 0)
(0 0 0)
(0 0 0)
(0 0 0)
(0 0 0)
(0 0 0)
(0 0 0)
(0 0 0)
(0 0 0)
(0 0 0)
(0 0 0)
(0 0 0)
(0 0 0)
(0 0 0)
(0 0 0)
(0 0 0)
(0 0 0)
(0 0 0)
(0 0 0)
(0 0 0)
(0 0 0)
(0 0 0)
(0 0 0)
(0 0 0)
(0 0 0)
(0 0 0)
(0 0 0)
(0 0 0)
(0 0 0)
(0 0 0)
(0 0 0)
(0 0 0)
(0 0 0)
(0 0 0)
(0 0 0)
(0 0 0)
(0 0 0)
(0 0 0)
(0 0 0)
(0 0 0)
(0 0 0)
(0 0 0)
(0 0 0)
(0 0 0)
(0 0 0)
(0 0 0)
(0 0 0)
(0 0 0)
(0 0 0)
(0 0 0)
(0 0 0)
(0 0 0)
(0 0 0)
(0 0 0)
(0 0 0)
(0 0 0)
(0 0 0)
(0 0 0)
(0 0 0)
(0 0 0)
(0 0 0)
(0 0 0)
(0 0 0)
(0 0 0)
(0 0 0)
(0 0 0)
(0 0 0)
(0 0 0)
(0 0 0)
(0 0 0)
(0 0 0)
(0 0 0)
(0 0 0)
(0 0 0)
(0 0 0)
(0 0 0)
(0 0 0)
(0 0 0)
(0 0 0)
(0 0 0)
(0 0 0)
(0 0 0)
(0 0 0)
(0 0 0)
(0 0 0)
(0 0 0)
(0 0 0)
(0 0 0)
(0 0 0)
(0 0 0)
(0 0 0)
(0 0 0)
(0 0 0)
(0 0 0)
(0 0 0)
(0 0 0)
(0 0 0)
(0 0 0)
(0 0 0)
(0 0 0)
(0 0 0)
(0 0 0)
(0 0 0)
(0 0 0)
(0 0 0)
(0 0 0)
(0 0 0)
(0 0 0)
(0 0 0)
(0 0 0)
(0 0 0)
(0 0 0)
(0 0 0)
(0 0 0)
(0 0 0)
(0 0 0)
(0 0 0)
(0 0 0)
(0 0 0)
(0 0 0)
(0 0 0)
(0 0 0)
(0 0 0)
(0 0 0)
(0 0 0)
(0 0 0)
(0 0 0)
(0 0 0)
(0 0 0)
(0 0 0)
(0 0 0)
(0 0 0)
(0 0 0)
(0 0 0)
(0 0 0)
(0 0 0)
(0 0 0)
(0 0 0)
(0 0 0)
(0 0 0)
(0 0 0)
(0 0 0)
(0 0 0)
(0 0 0)
(0 0 0)
(0 0 0)
(0 0 0)
(0 0 0)
(0 0 0)
(0 0 0)
(0 0 0)
(0 0 0)
(0 0 0)
(0 0 0)
(0 0 0)
(0 0 0)
(0 0 0)
(0 0 0)
(0 0 0)
(0 0 0)
(0 0 0)
(0 0 0)
(0 0 0)
(0 0 0)
(0 0 0)
(0 0 0)
(0 0 0)
(0 0 0)
(0 0 0)
(0 0 0)
(0 0 0)
(0 0 0)
(0 0 0)
(0 0 0)
(0 0 0)
(0 0 0)
(0 0 0)
(0 0 0)
(0 0 0)
(0 0 0)
(0 0 0)
(0 0 0)
(0 0 0)
(0 0 0)
(0 0 0)
(0 0 0)
(0 0 0)
(0 0 0)
(0 0 0)
(0 0 0)
(0 0 0)
(0 0 0)
(0 0 0)
(0 0 0)
(0 0 0)
(0 0 0)
(0 0 0)
(0 0 0)
(0 0 0)
(0 0 0)
(0 0 0)
(0 0 0)
(0 0 0)
(0 0 0)
(0 0 0)
(0 0 0)
(0 0 0)
(0 0 0)
(0 0 0)
(0 0 0)
(0 0 0)
(0 0 0)
(0 0 0)
(0 0 0)
(0 0 0)
(0 0 0)
(0 0 0)
(0 0 0)
(0 0 0)
(0 0 0)
(0 0 0)
(0 0 0)
(0 0 0)
(0 0 0)
(0 0 0)
(0 0 0)
(0 0 0)
(0 0 0)
(0 0 0)
(0 0 0)
(0 0 0)
(0 0 0)
(0 0 0)
(0 0 0)
(0 0 0)
(0 0 0)
(0 0 0)
(0 0 0)
(0 0 0)
(0 0 0)
(0 0 0)
(0 0 0)
(0 0 0)
(0 0 0)
(0 0 0)
(0 0 0)
(0 0 0)
(0 0 0)
(0 0 0)
(0 0 0)
(0 0 0)
(0 0 0)
(0 0 0)
(0 0 0)
(0 0 0)
(0 0 0)
(0 0 0)
(0 0 0)
(0 0 0)
(0 0 0)
(0 0 0)
(0 0 0)
(0 0 0)
(0 0 0)
(0 0 0)
(0 0 0)
(0 0 0)
(0 0 0)
(0 0 0)
(0 0 0)
(0 0 0)
(0 0 0)
(0 0 0)
(0 0 0)
(0 0 0)
(0 0 0)
(0 0 0)
(0 0 0)
(0 0 0)
(0 0 0)
(0 0 0)
(0 0 0)
(0 0 0)
(0 0 0)
(0 0 0)
(0 0 0)
(0 0 0)
(0 0 0)
(0 0 0)
(0 0 0)
(0 0 0)
(0 0 0)
(0 0 0)
(0 0 0)
(0 0 0)
(0 0 0)
(0 0 0)
(0 0 0)
(0 0 0)
(0 0 0)
(0 0 0)
(0 0 0)
(0 0 0)
(0 0 0)
(0 0 0)
(0 0 0)
(0 0 0)
(0 0 0)
(0 0 0)
(0 0 0)
(0 0 0)
(0 0 0)
(0 0 0)
(0 0 0)
(0 0 0)
(0 0 0)
(0 0 0)
(0 0 0)
(0 0 0)
(0 0 0)
(0 0 0)
(0 0 0)
(0 0 0)
(0 0 0)
(0 0 0)
(0 0 0)
(0 0 0)
(0 0 0)
(0 0 0)
(0 0 0)
(0 0 0)
(0 0 0)
(0 0 0)
(0 0 0)
(0 0 0)
(0 0 0)
(0 0 0)
(0 0 0)
(0 0 0)
(0 0 0)
(0 0 0)
(0 0 0)
(0 0 0)
(0 0 0)
(0 0 0)
(0 0 0)
(0 0 0)
(0 0 0)
(0 0 0)
(0 0 0)
(0 0 0)
(0 0 0)
(0 0 0)
(0 0 0)
(0 0 0)
(0 0 0)
(0 0 0)
(0 0 0)
(0 0 0)
(0 0 0)
(0 0 0)
(0 0 0)
(0 0 0)
(0 0 0)
(0 0 0)
(0 0 0)
(0 0 0)
(0 0 0)
(0 0 0)
(0 0 0)
(0 0 0)
(0 0 0)
(0 0 0)
(0 0 0)
(0 0 0)
(0 0 0)
(0 0 0)
(0 0 0)
(0 0 0)
(0 0 0)
(0 0 0)
(0 0 0)
(0 0 0)
(0 0 0)
(0 0 0)
(0 0 0)
(0 0 0)
(0 0 0)
(0 0 0)
(0 0 0)
(0 0 0)
(0 0 0)
(0 0 0)
(0 0 0)
(0 0 0)
(0 0 0)
(0 0 0)
(0 0 0)
(0 0 0)
(0 0 0)
(0 0 0)
(0 0 0)
(0 0 0)
(0 0 0)
(0 0 0)
(0 0 0)
(0 0 0)
(0 0 0)
(0 0 0)
(0 0 0)
(0 0 0)
(0 0 0)
(0 0 0)
(0 0 0)
(0 0 0)
(0 0 0)
(0 0 0)
(0 0 0)
(0 0 0)
(0 0 0)
(0 0 0)
(0 0 0)
(0 0 0)
(0 0 0)
(0 0 0)
(0 0 0)
(0 0 0)
(0 0 0)
(0 0 0)
(0 0 0)
(0 0 0)
(0 0 0)
(0 0 0)
(0 0 0)
(0 0 0)
(0 0 0)
(0 0 0)
(0 0 0)
(0 0 0)
(0 0 0)
(0 0 0)
(0 0 0)
(0 0 0)
(0 0 0)
(0 0 0)
(0 0 0)
(0 0 0)
(0 0 0)
(0 0 0)
(0 0 0)
(0 0 0)
(0 0 0)
(0 0 0)
(0 0 0)
(0 0 0)
(0 0 0)
(0 0 0)
(0 0 0)
(0 0 0)
(0 0 0)
(0 0 0)
(0 0 0)
(0 0 0)
(0 0 0)
(0 0 0)
(0 0 0)
(0 0 0)
(0 0 0)
(0 0 0)
(0 0 0)
(0 0 0)
(0 0 0)
(0 0 0)
(0 0 0)
(0 0 0)
(0 0 0)
(0 0 0)
(0 0 0)
(0 0 0)
(0 0 0)
(0 0 0)
(0 0 0)
(0 0 0)
(0 0 0)
(0 0 0)
(0 0 0)
(0 0 0)
(0 0 0)
(0 0 0)
(0 0 0)
(0 0 0)
(0 0 0)
(0 0 0)
(0 0 0)
(0 0 0)
(0 0 0)
(0 0 0)
(0 0 0)
(0 0 0)
(0 0 0)
(0 0 0)
(0 0 0)
(0 0 0)
(0 0 0)
(0 0 0)
(0 0 0)
(0 0 0)
(0 0 0)
(0 0 0)
(0 0 0)
(0 0 0)
(0 0 0)
(0 0 0)
(0 0 0)
(0 0 0)
(0 0 0)
(0 0 0)
(0 0 0)
(0 0 0)
(0 0 0)
(0 0 0)
(0 0 0)
(0 0 0)
(0 0 0)
(0 0 0)
(0 0 0)
(0 0 0)
(0 0 0)
(0 0 0)
(0 0 0)
(0 0 0)
(0 0 0)
(0 0 0)
(0 0 0)
(0 0 0)
(0 0 0)
(0 0 0)
(0 0 0)
(0 0 0)
(0 0 0)
(0 0 0)
(-1.01158452e-20 1.14132375e-08 -1.92365575e-21)
(-2.04396942e-20 2.3061051e-08 -3.88685845e-21)
(-3.13556021e-20 3.53765859e-08 -5.9626324e-21)
(-4.33303198e-20 4.8886254e-08 -8.23972484e-21)
(-5.68262578e-20 6.4111575e-08 -1.0806053e-20)
(-7.23073823e-20 8.15758096e-08 -1.37498234e-20)
(-9.02418834e-20 1.01806964e-07 -1.71600365e-20)
(-1.11101009e-19 1.25336476e-07 -2.11262625e-20)
(-1.35353506e-19 1.52692943e-07 -2.57375805e-20)
(-1.6345517e-19 1.84390344e-07 -3.10805892e-20)
(-1.95833161e-19 2.20910351e-07 -3.72364199e-20)
(-2.3286493e-19 2.62678572e-07 -4.4276728e-20)
(-2.74851987e-19 3.1003497e-07 -5.22587037e-20)
(-3.21989188e-19 3.63199229e-07 -6.12192338e-20)
(-3.74330838e-19 4.22232531e-07 -7.11684605e-20)
(-4.31755579e-19 4.86997964e-07 -8.20831168e-20)
(-4.93932798e-19 5.57122637e-07 -9.3900153e-20)
(-5.60293903e-19 6.31965291e-07 -1.06511298e-19)
(-6.30012344e-19 7.1059377e-07 -1.19759285e-19)
(-7.01996378e-19 7.91776861e-07 -1.33436509e-19)
(-7.7489829e-19 8.73994699e-07 -1.47286807e-19)
(-8.47142892e-19 9.55470898e-07 -1.61010899e-19)
(-9.16976648e-19 1.03422796e-06 -1.74275745e-19)
(-9.82536797e-19 1.10816521e-06 -1.86727686e-19)
(-1.04193752e-18 1.17515598e-06 -1.98008795e-19)
(-1.09336794e-18 1.2331581e-06 -2.07775474e-19)
(-1.13519488e-18 1.28032981e-06 -2.15717926e-19)
(-1.16606275e-18 1.31514236e-06 -2.21579075e-19)
(0 0 0)
(-2.04428026e-20 2.30645607e-08 -3.88744955e-21)
(-4.13005146e-20 4.65970126e-08 -7.85378262e-21)
(-6.33550227e-20 7.14791807e-08 -1.20476656e-20)
(-8.75597444e-20 9.87863502e-08 -1.66503775e-20)
(-1.14859207e-19 1.29583782e-07 -2.18414967e-20)
(-1.46201954e-19 1.64941238e-07 -2.780135e-20)
(-1.82546677e-19 2.05939889e-07 -3.47121738e-20)
(-2.24860427e-19 2.53670298e-07 -4.27577672e-20)
(-2.74107779e-19 3.092202e-07 -5.21214237e-20)
(-3.31229902e-19 3.73650909e-07 -6.29819444e-20)
(-3.9711278e-19 4.47961479e-07 -7.55075864e-20)
(-4.7254421e-19 5.33040222e-07 -8.98478807e-20)
(-5.58159948e-19 6.29603982e-07 -1.06123389e-19)
(-6.54380316e-19 7.38126649e-07 -1.24413651e-19)
(-7.61339835e-19 8.58759806e-07 -1.44743817e-19)
(-8.7881389e-19 9.9125004e-07 -1.67070727e-19)
(-1.006148e-18 1.13485917e-06 -1.91269493e-19)
(-1.14219668e-18 1.28829531e-06 -2.17121928e-19)
(-1.28527993e-18 1.44966382e-06 -2.44308336e-19)
(-1.43316594e-18 1.61644777e-06 -2.7240429e-19)
(-1.58308779e-18 1.78552681e-06 -3.00883887e-19)
(-1.73180047e-18 1.95324148e-06 -3.29130642e-19)
(-1.87568128e-18 2.1155064e-06 -3.56456612e-19)
(-2.01087251e-18 2.26797119e-06 -3.82129528e-19)
(-2.13346049e-18 2.40622238e-06 -4.05406773e-19)
(-2.2396799e-18 2.52601379e-06 -4.2557413e-19)
(-2.32612831e-18 2.62350846e-06 -4.41986422e-19)
(-2.38997351e-18 2.69551241e-06 -4.54106751e-19)
(0 0 0)
(-3.13651753e-20 3.53873971e-08 -5.96445282e-21)
(-6.33647867e-20 7.14902096e-08 -1.20495223e-20)
(-9.72166717e-20 1.09681922e-07 -1.84867612e-20)
(-1.34411194e-19 1.51643391e-07 -2.55595356e-20)
(-1.76426561e-19 1.99041763e-07 -3.3548882e-20)
(-2.24750892e-19 2.53555319e-07 -4.27376942e-20)
(-2.80893499e-19 3.1688619e-07 -5.34128593e-20)
(-3.4638363e-19 3.90758933e-07 -6.58650057e-20)
(-4.22754844e-19 4.7690292e-07 -8.0385518e-20)
(-5.11513311e-19 5.77016597e-07 -9.72604941e-20)
(-6.14088648e-19 6.92712042e-07 -1.1676138e-19)
(-7.31766513e-19 8.25438966e-07 -1.39132141e-19)
(-8.65603268e-19 9.76388483e-07 -1.64573025e-19)
(-1.01632452e-18 1.1463787e-06 -1.93221277e-19)
(-1.18421133e-18 1.33572638e-06 -2.25129513e-19)
(-1.3689803e-18 1.54411174e-06 -2.60242968e-19)
(-1.56966628e-18 1.77044619e-06 -2.98377252e-19)
(-1.78451902e-18 2.01275577e-06 -3.39198797e-19)
(-2.01092693e-18 2.26809518e-06 -3.82210486e-19)
(-2.24538221e-18 2.53250852e-06 -4.26745161e-19)
(-2.48350093e-18 2.80105188e-06 -4.71969586e-19)
(-2.72010882e-18 3.06789019e-06 -5.16900896e-19)
(-2.94939911e-18 3.32647514e-06 -5.60436669e-19)
(-3.16516116e-18 3.56980301e-06 -6.01398409e-19)
(-3.36107075e-18 3.79074208e-06 -6.38586633e-19)
(-3.53102395e-18 3.98240904e-06 -6.70844151e-19)
(-3.66948902e-18 4.13856578e-06 -6.97122661e-19)
(-3.77184593e-18 4.25400229e-06 -7.16546954e-19)
(0 0 0)
(-4.33488679e-20 4.89072063e-08 -8.24325187e-21)
(-8.7584191e-20 9.88139724e-08 -1.66550261e-20)
(-1.34428223e-19 1.5166264e-07 -2.55627738e-20)
(-1.85995137e-19 2.09837584e-07 -3.53684556e-20)
(-2.44387121e-19 2.75709664e-07 -4.64717225e-20)
(-3.11729158e-19 3.51675387e-07 -5.92765142e-20)
(-3.90188277e-19 4.40178614e-07 -7.41947025e-20)
(-4.81974757e-19 5.43711908e-07 -9.16462976e-20)
(-5.89322554e-19 6.64794475e-07 -1.12055701e-19)
(-7.14446271e-19 8.05923639e-07 -1.35843493e-19)
(-8.59472325e-19 9.69497235e-07 -1.63413317e-19)
(-1.02634275e-18 1.15770513e-06 -1.95133555e-19)
(-1.21669149e-18 1.37238971e-06 -2.31313794e-19)
(-1.43169521e-18 1.61487765e-06 -2.72176448e-19)
(-1.67190352e-18 1.8857885e-06 -3.17824512e-19)
(-1.93705736e-18 2.18482976e-06 -3.68207082e-19)
(-2.22590791e-18 2.5105928e-06 -4.23085047e-19)
(-2.53605295e-18 2.8603683e-06 -4.82000146e-19)
(-2.86381075e-18 3.23000404e-06 -5.44251208e-19)
(-3.20415357e-18 3.61382997e-06 -6.08881795e-19)
(-3.55072272e-18 4.00467525e-06 -6.74683342e-19)
(-3.89594339e-18 4.39399776e-06 -7.40217254e-19)
(-4.2312505e-18 4.77213879e-06 -8.03858012e-19)
(-4.54742585e-18 5.12870329e-06 -8.63857308e-19)
(-4.83503376e-18 5.45305107e-06 -9.184267e-19)
(-5.08492794e-18 5.73486829e-06 -9.65833593e-19)
(-5.28878956e-18 5.96477421e-06 -1.00450296e-18)
(-5.43964807e-18 6.13490838e-06 -1.03311567e-18)
(0 0 0)
(-5.68558721e-20 6.41450376e-08 -1.08116843e-20)
(-1.14902459e-19 1.29632668e-07 -2.1849721e-20)
(-1.76466733e-19 1.99087187e-07 -3.35565205e-20)
(-2.44412221e-19 2.75738057e-07 -4.64764949e-20)
(-3.21596598e-19 3.62808142e-07 -6.11528927e-20)
(-4.10924495e-19 4.63573194e-07 -7.81378159e-20)
(-5.15379011e-19 5.81397373e-07 -9.79981808e-20)
(-6.38028453e-19 7.19740851e-07 -1.21316961e-19)
(-7.82004306e-19 8.8213497e-07 -1.48688953e-19)
(-9.50446369e-19 1.07212039e-06 -1.8071029e-19)
(-1.14641125e-18 1.29314387e-06 -2.17960981e-19)
(-1.37274119e-18 1.54841038e-06 -2.60979922e-19)
(-1.631892e-18 1.84068904e-06 -3.10232125e-19)
(-1.9257218e-18 2.17207484e-06 -3.66068541e-19)
(-2.25524639e-18 2.54371285e-06 -4.2867958e-19)
(-2.62037255e-18 2.95549737e-06 -4.98044488e-19)
(-3.01962633e-18 3.40576559e-06 -5.73879892e-19)
(-3.44990038e-18 3.89101274e-06 -6.55592058e-19)
(-3.90624984e-18 4.40566193e-06 -7.42238501e-19)
(-4.38177058e-18 4.94192694e-06 -8.32505349e-19)
(-4.86759401e-18 5.4898065e-06 -9.24706915e-19)
(-5.35302871e-18 6.03724408e-06 -1.01681315e-18)
(-5.82586906e-18 6.57047594e-06 -1.1065087e-18)
(-6.2728749e-18 7.07457209e-06 -1.1912842e-18)
(-6.68040585e-18 7.53415146e-06 -1.26855656e-18)
(-7.03517042e-18 7.93422658e-06 -1.33581076e-18)
(-7.32502955e-18 8.26110945e-06 -1.39075143e-18)
(-7.53977882e-18 8.50329348e-06 -1.43145022e-18)
(0 0 0)
(-7.23500567e-20 8.16240447e-08 -1.37579379e-20)
(-1.46268171e-19 1.65016107e-07 -2.78139408e-20)
(-2.24820643e-19 2.53634218e-07 -4.27509568e-20)
(-3.11787978e-19 3.51741949e-07 -5.9287698e-20)
(-4.10960248e-19 4.63613669e-07 -7.81446136e-20)
(-5.26215447e-19 5.93622819e-07 -1.00058748e-19)
(-6.61569509e-19 7.46298307e-07 -1.25793197e-19)
(-8.21193381e-19 9.26343762e-07 -1.56140292e-19)
(-1.00939118e-18 1.1386129e-06 -1.91917358e-19)
(-1.23053355e-18 1.38803435e-06 -2.33953945e-19)
(-1.4889401e-18 1.67947912e-06 -2.83069376e-19)
(-1.78870559e-18 2.01756449e-06 -3.4003957e-19)
(-2.13346629e-18 2.40639058e-06 -4.0555254e-19)
(-2.52610713e-18 2.84921003e-06 -4.80152651e-19)
(-2.96841567e-18 3.34803781e-06 -5.64174857e-19)
(-3.46069673e-18 3.9032166e-06 -6.57671574e-19)
(-4.00137061e-18 4.51296377e-06 -7.6033661e-19)
(-4.58658786e-18 5.17293715e-06 -8.71432457e-19)
(-5.20990367e-18 5.87586786e-06 -9.8972913e-19)
(-5.86206211e-18 6.6113173e-06 -1.11346412e-18)
(-6.53094381e-18 7.36561832e-06 -1.24033351e-18)
(-7.20172629e-18 8.1220562e-06 -1.36752357e-18)
(-7.85729273e-18 8.86132971e-06 -1.4917892e-18)
(-8.47890159e-18 9.56230622e-06 -1.6095816e-18)
(-9.04709767e-18 1.0203049e-05 -1.71722102e-18)
(-9.54280839e-18 1.0762053e-05 -1.8111039e-18)
(-9.94853425e-18 1.12195871e-05 -1.88792705e-18)
(-1.02495169e-17 1.15590108e-05 -1.9449071e-18)
(0 0 0)
(-9.0299637e-20 1.01872265e-07 -1.71710179e-20)
(-1.82640824e-19 2.06046373e-07 -3.4730075e-20)
(-2.81001293e-19 3.17008156e-07 -5.34333547e-20)
(-3.90292487e-19 4.40296572e-07 -7.42145159e-20)
(-5.15464891e-19 5.81494616e-07 -9.80145085e-20)
(-6.6162189e-19 7.46357633e-07 -1.25803156e-19)
(-8.34097169e-19 9.40900581e-07 -1.58593782e-19)
(-1.03848963e-18 1.1714374e-06 -1.97449736e-19)
(-1.28064617e-18 1.44456155e-06 -2.43480972e-19)
(-1.56658442e-18 1.76705892e-06 -2.97829184e-19)
(-1.90234637e-18 2.14574265e-06 -3.61639768e-19)
(-2.29377303e-18 2.58719901e-06 -4.36018765e-19)
(-2.74619299e-18 3.09743612e-06 -5.21973453e-19)
(-3.26402254e-18 3.68143292e-06 -6.20336173e-19)
(-3.85028243e-18 4.34259425e-06 -7.31672446e-19)
(-4.50604744e-18 5.08213008e-06 -8.5617652e-19)
(-5.2298579e-18 5.89839214e-06 -9.93560004e-19)
(-6.01713825e-18 6.7862183e-06 -1.14294222e-18)
(-6.85968325e-18 7.73635364e-06 -1.30275387e-18)
(-7.74528687e-18 8.7350322e-06 -1.47066832e-18)
(-8.65759608e-18 9.76381265e-06 -1.64357585e-18)
(-9.5762695e-18 1.07997574e-05 -1.81761594e-18)
(-1.04775034e-17 1.18160261e-05 -1.98827903e-18)
(-1.13349538e-17 1.27829155e-05 -2.15058262e-18)
(-1.21210363e-17 1.36693244e-05 -2.29931767e-18)
(-1.28085233e-17 1.44445552e-05 -2.42935007e-18)
(-1.33723056e-17 1.50802986e-05 -2.5359514e-18)
(-1.37911359e-17 1.55525999e-05 -2.6151252e-18)
(0 0 0)
(-1.11175384e-19 1.254206e-07 -2.11404036e-20)
(-2.2498887e-19 2.53815613e-07 -4.27821882e-20)
(-3.46542287e-19 3.90938486e-07 -6.58951708e-20)
(-4.82142573e-19 5.43901885e-07 -9.16782031e-20)
(-6.38186961e-19 7.19920337e-07 -1.21347096e-19)
(-8.21323645e-19 9.26491295e-07 -1.56165055e-19)
(-1.03856891e-18 1.1715272e-06 -1.97464807e-19)
(-1.29737233e-18 1.46342895e-06 -2.46660789e-19)
(-1.60561065e-18 1.81107902e-06 -3.05247749e-19)
(-1.97150333e-18 2.22374609e-06 -3.74784356e-19)
(-2.40343619e-18 2.71088609e-06 -4.56859306e-19)
(-2.90967578e-18 3.28182001e-06 -5.53036601e-19)
(-3.49796121e-18 3.94527346e-06 -6.64777548e-19)
(-4.17496538e-18 4.70876897e-06 -7.93337993e-19)
(-4.94562788e-18 5.57787373e-06 -9.39641384e-19)
(-5.81237649e-18 6.55532173e-06 -1.10413099e-18)
(-6.7742733e-18 7.64005108e-06 -1.28660833e-18)
(-7.82614454e-18 8.82622323e-06 -1.4860693e-18)
(-8.95777916e-18 1.01023197e-05 -1.70055419e-18)
(-1.01533054e-17 1.14504401e-05 -1.92703252e-18)
(-1.1390872e-17 1.28459426e-05 -2.16134636e-18)
(-1.2642761e-17 1.4257573e-05 -2.39823616e-18)
(-1.38760417e-17 1.56482014e-05 -2.63146859e-18)
(-1.50538249e-17 1.69762371e-05 -2.85407699e-18)
(-1.61371058e-17 1.81977059e-05 -3.05871105e-18)
(-1.70870897e-17 1.92688722e-05 -3.23807474e-18)
(-1.78677986e-17 2.01491768e-05 -3.38541418e-18)
(-1.84486807e-17 2.0804178e-05 -3.49500351e-18)
(0 0 0)
(-1.3544292e-19 1.52794127e-07 -2.57545803e-20)
(-2.74278213e-19 3.09413071e-07 -5.2153827e-20)
(-4.22985401e-19 4.77163854e-07 -8.04293511e-20)
(-5.8958398e-19 6.65090401e-07 -1.12105401e-19)
(-7.82272842e-19 8.82438998e-07 -1.48740003e-19)
(-1.00964217e-18 1.13889709e-06 -1.91965068e-19)
(-1.2808479e-18 1.44479e-06 -2.43519316e-19)
(-1.60573101e-18 1.81121534e-06 -3.05270625e-19)
(-1.99482925e-18 2.25005617e-06 -3.79217821e-19)
(-2.45929159e-18 2.7738844e-06 -4.67473861e-19)
(-3.01067615e-18 3.39573267e-06 -5.72226731e-19)
(-3.66059655e-18 4.12869536e-06 -6.95671441e-19)
(-4.42019681e-18 4.98533618e-06 -8.39909386e-19)
(-5.29943539e-18 5.97688065e-06 -1.00681153e-18)
(-6.30617512e-18 7.11218978e-06 -1.19784497e-18)
(-7.44509322e-18 8.39653107e-06 -1.41386591e-18)
(-8.71645405e-18 9.83019509e-06 -1.65488744e-18)
(-1.01148193e-17 1.14070417e-05 -1.9198369e-18)
(-1.16278111e-17 1.31131066e-05 -2.2063249e-18)
(-1.32350867e-17 1.49254457e-05 -2.51045645e-18)
(-1.49077147e-17 1.68114342e-05 -2.82672009e-18)
(-1.66081583e-17 1.87287475e-05 -3.14799309e-18)
(-1.8291047e-17 2.06262327e-05 -3.46569577e-18)
(-1.99048574e-17 2.24458039e-05 -3.77011579e-18)
(-2.13945128e-17 2.41253724e-05 -4.050902e-18)
(-2.27047648e-17 2.56026586e-05 -4.2976999e-18)
(-2.37840586e-17 2.68195482e-05 -4.50087194e-18)
(-2.45884495e-17 2.77265062e-05 -4.65222196e-18)
(0 0 0)
(-1.63544884e-19 1.84491984e-07 -3.10976437e-20)
(-3.31449355e-19 3.7389931e-07 -6.3023664e-20)
(-5.11853302e-19 5.77401323e-07 -9.73251287e-20)
(-7.14850601e-19 8.06381221e-07 -1.35920357e-19)
(-9.50887087e-19 1.07261919e-06 -1.80794066e-19)
(-1.23098046e-18 1.38854018e-06 -2.34038893e-19)
(-1.56698237e-18 1.76750941e-06 -2.9790482e-19)
(-1.97181177e-18 2.22409531e-06 -3.74842972e-19)
(-2.45947484e-18 2.7740919e-06 -4.67508681e-19)
(-3.04498977e-18 3.43443357e-06 -5.78746194e-19)
(-3.74417697e-18 4.22295828e-06 -7.11547586e-19)
(-4.57323119e-18 5.15792458e-06 -8.68969975e-19)
(-5.54806156e-18 6.25726695e-06 -1.05400849e-18)
(-6.68335403e-18 7.53753839e-06 -1.26941657e-18)
(-7.99134577e-18 9.01252823e-06 -1.51747183e-18)
(-9.48031584e-18 1.06915605e-05 -1.79968905e-18)
(-1.11528405e-17 1.25775273e-05 -2.11648997e-18)
(-1.30039009e-17 1.46647564e-05 -2.4668475e-18)
(-1.50189955e-17 1.69368847e-05 -2.84793415e-18)
(-1.71724825e-17 1.93649908e-05 -3.25481779e-18)
(-1.94264381e-17 2.19063101e-05 -3.68025913e-18)
(-2.17303514e-17 2.45038923e-05 -4.1146703e-18)
(-2.40219631e-17 2.7087548e-05 -4.54629016e-18)
(-2.62294728e-17 2.95763374e-05 -4.96161497e-18)
(-2.82751812e-17 3.18826761e-05 -5.34609209e-18)
(-3.00804007e-17 3.39178693e-05 -5.68504099e-18)
(-3.15711987e-17 3.55985845e-05 -5.96471759e-18)
(-3.26843003e-17 3.68535042e-05 -6.17339686e-18)
(0 0 0)
(-1.95837167e-19 2.20915453e-07 -3.72371741e-20)
(-3.97381031e-19 4.48265211e-07 -7.55585767e-20)
(-6.14616323e-19 6.93308908e-07 -1.16861689e-19)
(-8.60095798e-19 9.70202583e-07 -1.63531832e-19)
(-1.1471223e-18 1.2939483e-06 -2.18096135e-19)
(-1.48971961e-18 1.68036092e-06 -2.83217531e-19)
(-1.90306739e-18 2.14655847e-06 -3.61776792e-19)
(-2.40404636e-18 2.71157665e-06 -4.56975245e-19)
(-3.01115277e-18 3.39627212e-06 -5.72317275e-19)
(-3.74446194e-18 4.2232808e-06 -7.11601708e-19)
(-4.62547472e-18 5.2168442e-06 -8.78890474e-19)
(-5.67659666e-18 6.40222137e-06 -1.07840698e-18)
(-6.92034045e-18 7.80478896e-06 -1.3143815e-18)
(-8.37811413e-18 9.44867433e-06 -1.59081782e-18)
(-1.00685972e-17 1.13549244e-05 -1.91118197e-18)
(-1.20056733e-17 1.35391749e-05 -2.2780081e-18)
(-1.41959828e-17 1.60088927e-05 -2.69243492e-18)
(-1.66361795e-17 1.87602839e-05 -3.15369005e-18)
(-1.93100821e-17 2.17750853e-05 -3.65856065e-18)
(-2.21860376e-17 2.50175949e-05 -4.20091167e-18)
(-2.52149182e-17 2.84324161e-05 -4.77133201e-18)
(-2.83292507e-17 3.19434783e-05 -5.35700143e-18)
(-3.14439833e-17 3.54549038e-05 -5.94186928e-18)
(-3.44593043e-17 3.88541844e-05 -6.50721521e-18)
(-3.72656964e-17 4.20178782e-05 -7.0326171e-18)
(-3.9751053e-17 4.48196303e-05 -7.49728353e-18)
(-4.18092314e-17 4.71398106e-05 -7.88162791e-18)
(-4.33489898e-17 4.88755866e-05 -8.1688897e-18)
(0 0 0)
(-2.32914716e-19 2.62735506e-07 -4.42861842e-20)
(-4.72910247e-19 5.33454634e-07 -8.99174583e-20)
(-7.32357413e-19 8.26107707e-07 -1.39244463e-19)
(-1.02708444e-18 1.15854455e-06 -1.95274529e-19)
(-1.37385631e-18 1.54967144e-06 -2.61191859e-19)
(-1.79008571e-18 2.01912475e-06 -3.40301857e-19)
(-2.29502742e-18 2.58861758e-06 -4.36257126e-19)
(-2.91076821e-18 3.28305579e-06 -5.53244139e-19)
(-3.66156364e-18 4.12978936e-06 -6.95855117e-19)
(-4.57398672e-18 5.15877926e-06 -8.69113422e-19)
(-5.677059e-18 6.40274431e-06 -1.07849472e-18)
(-7.00150825e-18 7.89632306e-06 -1.32978119e-18)
(-8.57890839e-18 9.67510301e-06 -1.62889245e-18)
(-1.04401091e-17 1.17738492e-05 -1.98158105e-18)
(-1.26131397e-17 1.4224141e-05 -2.3930285e-18)
(-1.51203974e-17 1.70512022e-05 -2.86730717e-18)
(-1.79752781e-17 2.0270105e-05 -3.40674072e-18)
(-2.11782527e-17 2.38813492e-05 -4.01116636e-18)
(-2.47126178e-17 2.78660754e-05 -4.67714676e-18)
(-2.85403659e-17 3.21814136e-05 -5.3972187e-18)
(-3.25987803e-17 3.67566489e-05 -6.15929558e-18)
(-3.67985229e-17 4.1491068e-05 -6.94636655e-18)
(-4.10240335e-17 4.62544111e-05 -7.73663957e-18)
(-4.51369734e-17 5.08907529e-05 -8.50425193e-18)
(-4.89831463e-17 5.52263027e-05 -9.220609e-18)
(-5.24027765e-17 5.9080986e-05 -9.8563072e-18)
(-5.52432709e-17 6.22828274e-05 -1.03834638e-17)
(-5.73728261e-17 6.46832845e-05 -1.07781495e-17)
(0 0 0)
(-2.75033963e-19 3.1024128e-07 -5.22932949e-20)
(-5.58584599e-19 6.30085017e-07 -1.06204111e-19)
(-8.66195787e-19 9.77059775e-07 -1.64685652e-19)
(-1.21760338e-18 1.373422e-06 -2.3148711e-19)
(-1.63336546e-18 1.84235537e-06 -3.10512161e-19)
(-2.13511702e-18 2.40825734e-06 -4.05866247e-19)
(-2.74776359e-18 3.09921278e-06 -5.22271858e-19)
(-3.49978189e-18 3.94733216e-06 -6.65123354e-19)
(-4.4220181e-18 4.98739529e-06 -8.40255211e-19)
(-5.54961522e-18 6.25902363e-06 -1.05430337e-18)
(-6.92159756e-18 7.80621021e-06 -1.31461998e-18)
(-8.57963929e-18 9.67592938e-06 -1.62903101e-18)
(-1.05676487e-17 1.19176667e-05 -2.005747e-18)
(-1.2929552e-17 1.45809193e-05 -2.45293027e-18)
(-1.57067739e-17 1.77123554e-05 -2.97820442e-18)
(-1.89343564e-17 2.13514407e-05 -3.58790769e-18)
(-2.26364792e-17 2.55253904e-05 -4.28623858e-18)
(-2.68209309e-17 3.02429419e-05 -5.07421508e-18)
(-3.14728404e-17 3.54872936e-05 -5.94851299e-18)
(-3.65483049e-17 4.12089273e-05 -6.90031221e-18)
(-4.19687499e-17 4.7319256e-05 -7.91431437e-18)
(-4.76171856e-17 5.36864062e-05 -8.96815081e-18)
(-5.33376561e-17 6.01345976e-05 -1.00324139e-17)
(-5.89391514e-17 6.64485508e-05 -1.1071523e-17)
(-6.42048946e-17 7.23839519e-05 -1.20455554e-17)
(-6.8907102e-17 7.76840846e-05 -1.29130114e-17)
(-7.28260594e-17 8.21013291e-05 -1.36342639e-17)
(-7.57709654e-17 8.54206519e-05 -1.41752166e-17)
(0 0 0)
(-3.22174189e-19 3.63409276e-07 -6.12544008e-20)
(-6.54774166e-19 7.38573574e-07 -1.24488517e-19)
(-1.01695585e-18 1.14709468e-06 -1.9334128e-19)
(-1.43270069e-18 1.61601669e-06 -2.72367557e-19)
(-1.92714019e-18 2.17368047e-06 -3.66338112e-19)
(-2.52763533e-18 2.85094021e-06 -4.80443058e-19)
(-3.26583997e-18 3.68348975e-06 -6.20681437e-19)
(-4.17718354e-18 4.71127794e-06 -7.93759278e-19)
(-5.30182059e-18 5.97957792e-06 -1.00726431e-18)
(-6.68622795e-18 7.54078637e-06 -1.26996177e-18)
(-8.38083154e-18 9.45174502e-06 -1.59133307e-18)
(-1.04420683e-17 1.17760636e-05 -1.98195219e-18)
(-1.29306924e-17 1.45822083e-05 -2.45314609e-18)
(-1.59083591e-17 1.79396488e-05 -3.01632368e-18)
(-1.94355383e-17 2.1916507e-05 -3.68255575e-18)
(-2.35655941e-17 2.65728859e-05 -4.46142956e-18)
(-2.83393698e-17 3.19547694e-05 -5.3600068e-18)
(-3.37774911e-17 3.80853537e-05 -6.38136905e-18)
(-3.98711858e-17 4.49547065e-05 -7.52291595e-18)
(-4.65726308e-17 5.2508893e-05 -8.77462438e-18)
(-5.37858051e-17 6.06396706e-05 -1.01174684e-17)
(-6.13596477e-17 6.91767778e-05 -1.15223433e-17)
(-6.90854915e-17 7.78850401e-05 -1.29498491e-17)
(-7.67009087e-17 8.64686991e-05 -1.43512863e-17)
(-8.39017906e-17 9.45850213e-05 -1.56711214e-17)
(-9.0363344e-17 0.000101867959 -1.68509449e-17)
(-9.57686313e-17 0.000107960315 -1.78345771e-17)
(-9.98407302e-17 0.000112549986 -1.85735809e-17)
(0 0 0)
(-3.74504374e-19 4.22430029e-07 -7.12014478e-20)
(-7.61700833e-19 8.59170426e-07 -1.44812438e-19)
(-1.18478854e-18 1.33638241e-06 -2.25239228e-19)
(-1.67275247e-18 1.8867524e-06 -3.17985866e-19)
(-2.25639712e-18 2.5450183e-06 -4.2889827e-19)
(-2.96986337e-18 3.34967915e-06 -5.64449939e-19)
(-3.85222231e-18 4.34479137e-06 -7.32040954e-19)
(-4.94787504e-18 5.58041786e-06 -9.40068153e-19)
(-6.30905314e-18 7.11544551e-06 -1.19839121e-18)
(-7.99491441e-18 9.01656272e-06 -1.51814883e-18)
(-1.00722088e-17 1.13590069e-05 -1.91186641e-18)
(-1.26171755e-17 1.42287009e-05 -2.39379227e-18)
(-1.57098974e-17 1.77158851e-05 -2.9787949e-18)
(-1.94368151e-17 2.19179517e-05 -3.68279639e-18)
(-2.38858386e-17 2.69339351e-05 -4.52180003e-18)
(-2.91358823e-17 3.28527204e-05 -5.5098602e-18)
(-3.52528669e-17 3.97485436e-05 -6.65828384e-18)
(-4.22787395e-17 4.7668626e-05 -7.97354098e-18)
(-5.02180205e-17 5.66180195e-05 -9.45476278e-18)
(-5.90235854e-17 6.65435883e-05 -1.10911855e-17)
(-6.85820552e-17 7.7317545e-05 -1.28596462e-17)
(-7.87019153e-17 8.87240571e-05 -1.47227379e-17)
(-8.91070825e-17 0.000100451988 -1.66281184e-17)
(-9.94393943e-17 0.000112097695 -1.85095472e-17)
(-1.09273523e-16 0.000123181828 -2.02901394e-17)
(-1.18146386e-16 0.00013318247 -2.18879929e-17)
(-1.25599799e-16 0.000141583217 -2.32237413e-17)
(-1.31230516e-16 0.000147929571 -2.42288779e-17)
(0 0 0)
(-4.31912908e-19 4.87177633e-07 -8.21130223e-20)
(-8.79137592e-19 9.91619475e-07 -1.67132256e-19)
(-1.3694914e-18 1.54469449e-06 -2.60340113e-19)
(-1.93778983e-18 2.18566394e-06 -3.68346292e-19)
(-2.62136214e-18 2.95662308e-06 -4.98232543e-19)
(-3.46198907e-18 3.90468506e-06 -6.57917116e-19)
(-4.50774376e-18 5.08405523e-06 -8.56498737e-19)
(-5.81457287e-18 6.55781165e-06 -1.10454804e-18)
(-7.448149e-18 8.39999077e-06 -1.41444586e-18)
(-9.4837722e-18 1.06954724e-05 -1.80034472e-18)
(-1.20099109e-17 1.3543968e-05 -2.27881093e-18)
(-1.51251797e-17 1.70566094e-05 -2.86821239e-18)
(-1.89379377e-17 2.13554933e-05 -3.58858377e-18)
(-2.35685342e-17 2.65762133e-05 -4.46198155e-18)
(-2.91388084e-17 3.28560275e-05 -5.51040839e-18)
(-3.57638105e-17 4.03245335e-05 -6.75414793e-18)
(-4.35467019e-17 4.90979328e-05 -8.21070685e-18)
(-5.25636355e-17 5.92620022e-05 -9.8919037e-18)
(-6.28438101e-17 7.08496233e-05 -1.18001324e-17)
(-7.43498485e-17 8.38186726e-05 -1.39248431e-17)
(-8.6954401e-17 9.80256502e-05 -1.62385494e-17)
(-1.00420538e-16 0.00011320357 -1.86938396e-17)
(-1.14388383e-16 0.000128946879 -2.12218598e-17)
(-1.28373524e-16 0.00014470965 -2.37331883e-17)
(-1.41783722e-16 0.000159824404 -2.61220116e-17)
(-1.53959032e-16 0.000173547324 -2.82740575e-17)
(-1.64235286e-16 0.000185129811 -3.00777497e-17)
(-1.72022651e-16 0.000193907034 -3.14367995e-17)
(0 0 0)
(-4.94073226e-19 5.5728377e-07 -9.39268447e-20)
(-1.00643524e-18 1.13518851e-06 -1.91324089e-19)
(-1.57011647e-18 1.77096174e-06 -2.98462814e-19)
(-2.22654798e-18 2.51132471e-06 -4.23206689e-19)
(-3.02049269e-18 3.40675468e-06 -5.74044517e-19)