/*--------------------------------*- C++ -*----------------------------------*\
| =========                 |                                                 |
| \\      /  F ield         | foam-extend: Open Source CFD                    |
|  \\    /   O peration     | Version:     4.1                                |
|   \\  /    A nd           | Web:         http://www.foam-extend.org         |
|    \\/     M anipulation  |                                                 |
\*---------------------------------------------------------------------------*/
FoamFile
{
    version     2.0;
    format      ascii;
    class       volScalarField;
    location    "0.15";
    object      rAU;
}
// * * * * * * * * * * * * * * * * * * * * * * * * * * * * * * * * * * * * * //

dimensions      [0 0 1 0 0 0 0];

internalField   nonuniform List<scalar> 
35840
(
0.000714285746
0.000836637433
0.000924548066
0.000999611839
0.00105386259
0.00109046087
0.00111504259
0.00113178192
0.00114331168
0.00115143121
0.0011573489
0.00116181827
0.00116529966
0.0011680806
0.0011703454
0.00117221596
0.0011737765
0.00117501636
0.00117606587
0.00117697001
0.00117775445
0.00117844066
0.00117904681
0.00117958839
0.00118007886
0.00118053015
0.00118095307
0.00118135761
0.000739083753
0.000819497491
0.000880891734
0.000951171972
0.00101612224
0.00106944302
0.00111046472
0.00114131218
0.00116442009
0.001181847
0.00119520383
0.00120565123
0.00121398433
0.00122074558
0.00122630973
0.00123093983
0.00123482493
0.00123802538
0.00124074141
0.00124294782
0.00124480879
0.00124644975
0.00124791022
0.00124922448
0.00125042255
0.00125153097
0.00125257353
0.00125357171
0.00075317565
0.000833322918
0.000878398448
0.00092931425
0.000978234372
0.00102100017
0.00105596385
0.00108369502
0.00110556485
0.00112290607
0.0011368145
0.00114812236
0.00115743248
0.0011651796
0.00117168201
0.00117717663
0.00118184315
0.00118582063
0.00118921874
0.00119201576
0.00119413434
0.00119601898
0.00119771629
0.00119926305
0.00120069169
0.0012020307
0.00120330501
0.00120453637
0.000760308978
0.000850112993
0.000895623703
0.000941325427
0.000982258158
0.00101676164
0.00104457826
0.00106663396
0.00108423276
0.00109850265
0.0011102833
0.00112016337
0.00112854561
0.00113571089
0.00114186438
0.00114716315
0.00115173198
0.00115567269
0.00115906968
0.0011619935
0.00116395124
0.00116571571
0.00116732916
0.00116882427
0.0011702304
0.00117157333
0.00117287514
0.00117415431
0.000763382492
0.000860199456
0.000909775319
0.000956402435
0.000995499859
0.00102638732
0.00104993885
0.00106782434
0.00108170124
0.00109282806
0.00110204844
0.00110988961
0.00111666934
0.00112258197
0.00112775488
0.00113228028
0.0011362316
0.00113967117
0.0011426535
0.0011450951
0.0011466065
0.00114799619
0.00114929278
0.00115052238
0.00115170927
0.001152875
0.00115403772
0.00115521189
0.000765073994
0.000866246716
0.000919348795
0.000968016553
0.00100751278
0.00103741789
0.00105912591
0.00107479713
0.00108640923
0.0010954011
0.00110270363
0.00110887189
0.00111421786
0.00111891309
0.00112305495
0.00112670439
0.00112990579
0.00113269629
0.00113510943
0.00113668353
0.00113763165
0.00113852487
0.00113938348
0.00114022855
0.00114108047
0.00114195769
0.00114287558
0.00114384574
0.000766121285
0.000870081273
0.000925796648
0.000976360857
0.00101678111
0.00104669478
0.00106774175
0.00108237323
0.0010927859
0.00110055307
0.00110668027
0.00111175915
0.00111611584
0.00111992306
0.00112327175
0.00112621233
0.00112877693
0.00113099041
0.00113278692
0.00113340371
0.00113380714
0.00113420253
0.00113460836
0.00113504441
0.00113553035
0.00113608427
0.00113672128
0.00113745237
0.000766816397
0.000872664079
0.000930309948
0.000982464421
0.00102385734
0.00105410111
0.00107497324
0.00108911911
0.00109889416
0.00110597188
0.00111141291
0.00111583606
0.00111957897
0.0011228175
0.00112564103
0.00112809555
0.00113020719
0.00113199419
0.00113289227
0.00113283953
0.00113278636
0.00113275121
0.00113275485
0.00113281949
0.00113296747
0.00113321965
0.00113359365
0.00113410233
0.000767309701
0.00087450359
0.000933599172
0.000987056408
0.00102935544
0.00106004088
0.00108096278
0.00109489904
0.00110432519
0.0011109963
0.00111601986
0.00112003805
0.00112339815
0.00112627846
0.00112876687
0.00113090572
0.00113271626
0.00113396878
0.00113385087
0.001133431
0.00113301664
0.00113263103
0.00113229986
0.00113205054
0.0011319108
0.00113190688
0.00113206139
0.00113239114
0.000767677555
0.000875872675
0.000936080165
0.000990601774
0.00103371389
0.00106487689
0.00108596988
0.00109985782
0.0011091056
0.00111553498
0.00112029522
0.00112405121
0.00112716078
0.00112980566
0.00113207313
0.0011340025
0.00113561049
0.00113570304
0.00113501954
0.00113431081
0.00113360337
0.00113292649
0.00113231243
0.00113179576
0.00113141182
0.00113119454
0.00113117364
0.00113137172
0.000767962228
0.000876928679
0.00093800891
0.000993405322
0.00103723503
0.00106887441
0.00109020557
0.00110414836
0.00111333225
0.00111963174
0.00112423205
0.00112781956
0.00113076345
0.00113325032
0.00113536819
0.00113715437
0.00113776942
0.00113694537
0.00113603004
0.00113507295
0.00113410666
0.0011331674
0.00113229541
0.00113153432
0.00113092933
0.00113052439
0.0011303586
0.00113046225
0.000768189144
0.000877767371
0.000939547771
0.000995670087
0.00104012878
0.00107222433
0.00109382803
0.0011078928
0.00111709385
0.00112334624
0.00112786495
0.00113135557
0.00113419847
0.00113658585
0.00113860746
0.00113955161
0.00113891969
0.00113789056
0.00113676156
0.00113556839
0.00113435
0.0011331505
0.00113201968
0.00113101239
0.00113018631
0.00112959841
0.00112930014
0.00112933202
0.00076837427
0.000878449258
0.000940802432
0.000997533878
0.00104254356
0.0010750666
0.00109695707
0.00111118679
0.00112046298
0.00112673149
0.0011312313
0.00113468451
0.00113748175
0.00113982087
0.0011411462
0.00114079257
0.00113975748
0.00113854915
0.00113720694
0.0011357714
0.00113428805
0.00113280969
0.00113139738
0.00113011976
0.00112905044
0.00112826346
0.00112782687
0.0011277952
0.000768528008
0.000879013936
0.000941843599
0.000999092049
0.00104458585
0.00107750506
0.00109968443
0.00111410572
0.00112349852
0.00112983197
0.00113436425
0.0011378313
0.00114063282
0.00114241999
0.00114244624
0.00114153536
0.00114036211
0.0011389718
0.00113740612
0.00113570952
0.00113393379
0.00113214108
0.00113040544
0.00112881235
0.0011274558
0.00112643251
0.00112583336
0.00112573276
0.000768657355
0.000879488107
0.000942719704
0.00100041162
0.00104633276
0.00107961718
0.00110208051
0.001116709
0.001126248
0.00113268438
0.0011372917
0.00114081751
0.00114320785
0.00114374721
0.00114311711
0.00114211716
0.00114080492
0.00113922478
0.00113741867
0.00113543333
0.00113332584
0.0011311678
0.00112904784
0.0011270718
0.00112535973
0.00112403879
0.00112323187
0.00112304237
0.000768767139
0.000879890225
0.000943464585
0.00100154034
0.0010478405
0.00108146083
0.00110419913
0.00111904302
0.0011287491
0.00113531803
0.00114003594
0.00114328275
0.00114452442
0.00114436467
0.00114370019
0.00114261493
0.00114116218
0.00113938253
0.00113731529
0.00113500684
0.00113251754
0.00112992757
0.00112734121
0.00112488845
0.00112272252
0.00112101174
0.00111992454
0.0011196076
0.000768860767
0.000880233304
0.000944102272
0.00100251256
0.00104915025
0.00108307914
0.00110608102
0.0011211432
0.00113103063
0.00113775506
0.00114231213
0.00114454735
0.00114509855
0.00114496007
0.00114427048
0.00114310669
0.00114151456
0.00113952728
0.00113717762
0.00113450752
0.00113157695
0.00112847224
0.00112531316
0.00112225737
0.00111949991
0.00111726481
0.00111578608
0.0011152501
0.000768940688
0.000880526685
0.000944650055
0.00100335318
0.00105029213
0.00108450395
0.00110775639
0.00112303571
0.00113311339
0.00113977652
0.00114348431
0.00114508012
0.00114570393
0.00114560114
0.00114490161
0.00114367245
0.00114194855
0.00113975129
0.00113710151
0.00113403076
0.00113059257
0.00112687418
0.00112300825
0.00111918232
0.00111564289
0.001112689
0.00111062558
0.00110978024
0.000769008699
0.000880777185
0.000945120519
0.00100408034
0.00105128811
0.00108575846
0.00110924698
0.00112473877
0.00113483287
0.00114082081
0.00114397148
0.00114568214
0.00114639676
0.0011463517
0.00114566629
0.0011443951
0.00114255818
0.00114015976
0.00113720185
0.00113369709
0.0011296829
0.00112523795
0.00112050059
0.00111568684
0.00111110369
0.00110714122
0.00110422537
0.001102909
0.000769066149
0.000880989874
0.000945522934
0.0010047073
0.00105215411
0.00108685914
0.00111056769
0.00112612983
0.00113572181
0.00114125468
0.00114454999
0.00114639544
0.00114722694
0.00114727129
0.00114663593
0.00114536044
0.001143446
0.00114087364
0.00113761793
0.00113366097
0.00112900961
0.0011237178
0.00111791434
0.0011118346
0.00110585069
0.00110042504
0.00109629374
0.0010942241
0.000769114088
0.000881168629
0.000945864254
0.00100524382
0.00105290158
0.0010878174
0.00111162546
0.00112684594
0.00113609397
0.00114178734
0.0011452468
0.00114725381
0.00114823694
0.00114841363
0.00114787888
0.00114665554
0.00114472239
0.00114203094
0.00113851813
0.00113412057
0.00112879405
0.0011225419
0.00111545503
0.00110776395
0.00109985241
0.00109239126
0.00108642832
0.00108312684
0.000769153369
0.000881316531
0.000946149843
0.00100569719
0.00105353871
0.00108855794
0.00111216262
0.0011271497
0.0011365606
0.00114243174
0.0011460797
0.00114828141
0.00114945961
0.00114982365
0.00114945685
0.001148365
0.00114650221
0.00114378501
0.00114010227
0.00113532717
0.00112933679
0.00112204511
0.0011134563
0.00110373703
0.00109319858
0.0010828601
0.00107408862
0.00106871875
0.000769184737
0.000881436171
0.000946384045
0.0010060731
0.00105399786
0.00108892186
0.00111239492
0.00112753552
0.00113712318
0.00114319181
0.00114705606
0.00114949069
0.00115091511
0.00115153323
0.00115141926
0.00115056397
0.00114889729
0.00114629812
0.00114259874
0.00113759056
0.00113103848
0.00112271315
0.00111245406
0.00110012068
0.00108619154
0.00107169568
0.00105849727
0.00104952371
0.000769208889
0.000881529866
0.000946570623
0.00100630671
0.00105420629
0.00108908465
0.00111269264
0.00112799684
0.00113777527
0.0011440617
0.00114817141
0.00115087992
0.00115260696
0.00115355529
0.001153795
0.00115330728
0.00115200305
0.00114972667
0.00114625156
0.0011412739
0.00113441269
0.00112522881
0.0011131612
0.00109784504
0.00107951142
0.00105900844
0.00103857898
0.00102297332
0.000769219083
0.000881577365
0.000946651469
0.00100639159
0.00105430743
0.00108929541
0.0011130447
0.00112852082
0.00113850234
0.00114502516
0.00114940799
0.00115243068
0.00115451782
0.00115587702
0.00115658204
0.00115661431
0.00115587756
0.00115419442
0.0011512901
0.00114676699
0.00114007618
0.00113047486
0.00111674204
0.00109828672
0.00107445869
0.00104545106
0.00101329645
0.000985828101
0.000769216713
0.000881581483
0.000946658433
0.00100644502
0.00105444108
0.00108954172
0.00111343561
0.00112908874
0.00113928191
0.00114605536
0.00115073405
0.00115410593
0.00115660571
0.00115845314
0.00115973595
0.00116045027
0.00116051261
0.00115975046
0.00115787362
0.00115442502
0.00114870856
0.00113936902
0.00112497235
0.00110371664
0.00107339908
0.0010324745
0.000982307826
0.000938135086
0.000769214163
0.000881581421
0.000946681772
0.00100651896
0.0010545958
0.00108980844
0.00111384615
0.00112967655
0.00114008416
0.00114711541
0.00115210401
0.00115584956
0.00115880201
0.00116120096
0.00116315969
0.00116470683
0.00116579886
0.00116630968
0.00116599631
0.00116443315
0.00116082077
0.0011533992
0.00114048445
0.00111874258
0.00108321042
0.00102802079
0.000952523284
0.000891741033
0.000769214843
0.000881590507
0.000946716875
0.0010066042
0.00105475868
0.00109007836
0.0011142541
0.00113025601
0.00114087337
0.00114816009
0.00115346039
0.0011575882
0.00116101278
0.00116400004
0.0011666993
0.00116918893
0.00117149432
0.00117358483
0.0011753488
0.00117653782
0.00117629261
0.00117335282
0.00116591173
0.00115003823
0.00111850292
0.00105994799
0.000967346125
0.000885060496
0.000739802501
0.000821720467
0.000884285893
0.000955194728
0.00102015934
0.00107303636
0.00111336774
0.00114346349
0.00116587582
0.00118271425
0.00119559965
0.00120568382
0.00121374643
0.00122031363
0.00122574544
0.00123029258
0.00123413431
0.00123740324
0.00124020087
0.00124260724
0.00124468716
0.00124649426
0.00124807376
0.0012494645
0.00125070058
0.00125181257
0.00125282849
0.00125377429
0.000752948091
0.000758100383
0.000763153046
0.000796314154
0.000843041068
0.000894034408
0.000942829437
0.000986188383
0.00102311803
0.00105380677
0.00107903616
0.00109977331
0.00111691567
0.00113120167
0.00114320982
0.00115338395
0.00116206284
0.00116950705
0.00117592018
0.00118146449
0.00118627196
0.0011904522
0.00119409839
0.00119729171
0.00120010474
0.00120260401
0.00120485157
0.00120690588
0.000770705432
0.000770884829
0.000754229918
0.00076161089
0.000782822466
0.000811818792
0.00084366312
0.000875069518
0.000904262334
0.000930418507
0.000953326119
0.000973148445
0.000990219148
0.00100491141
0.00101757735
0.00102852546
0.00103801588
0.00104626418
0.00105344817
0.00105971494
0.00106518699
0.00106996762
0.00107414555
0.00107779909
0.00108099967
0.0010838146
0.00108630891
0.00108854618
0.000779770147
0.000790744088
0.000774250439
0.000776094455
0.000787816044
0.000805265551
0.000825332632
0.000845958845
0.000865984301
0.00088476016
0.000901957079
0.000917474981
0.000931353467
0.000943700136
0.000954649629
0.000964342422
0.00097291363
0.000980487652
0.000987176166
0.000993077752
0.000998278413
0.00100285285
0.00100686647
0.00101037794
0.0010134422
0.00101611307
0.00101844543
0.00102049627
0.000783419417
0.000802128082
0.000790102216
0.000794028792
0.000805254148
0.00081967801
0.000834857404
0.000849622149
0.000863571637
0.000876582218
0.000888617266
0.000899685116
0.000909817023
0.000919052538
0.000927435336
0.000935013003
0.000941836453
0.000947958595
0.000953432618
0.000958310112
0.000962639335
0.000966464156
0.000969824024
0.000972755099
0.000975292286
0.000977471705
0.000979333
0.000980920916
0.000785372141
0.00080859809
0.000800133781
0.00080688932
0.000819981262
0.000834971682
0.000849342594
0.000862157153
0.000873385334
0.00088327593
0.000892094867
0.00090005648
0.000907309597
0.000913946158
0.000920019888
0.000925563759
0.000930601832
0.000935155925
0.000939248542
0.00094290334
0.000946144216
0.000948994094
0.000951474257
0.000953604651
0.000955405238
0.000956898101
0.000958109802
0.000959073351
0.000786563015
0.000812606908
0.000806644048
0.000815652135
0.00083061885
0.000846906404
0.000861843398
0.000874490409
0.000884930511
0.000893576767
0.000900864679
0.000907153774
0.000912701222
0.00091767135
0.000922160884
0.000926223996
0.000929891071
0.000933181023
0.000936108471
0.00093868714
0.000940930848
0.00094285324
0.000944467405
0.000945785964
0.000946821994
0.000947590737
0.00094811175
0.000948410972
0.000787345658
0.000815277231
0.000811109577
0.000821854319
0.000838376504
0.00085590461
0.000871659168
0.000884676286
0.000895084026
0.000903372477
0.000910062505
0.000915593053
0.000920286831
0.000924357737
0.000927937292
0.000931102047
0.000933895024
0.000936340688
0.000938454525
0.000940248504
0.000941733664
0.000942920991
0.000943821594
0.000944446918
0.00094480942
0.000944923865
0.000944809077
0.000944489742
0.000787899404
0.000817167751
0.000814324222
0.000826424265
0.0008442243
0.000862838682
0.000879398808
0.00089291386
0.00090353845
0.000911813577
0.000918315731
0.000923534305
0.000927832968
0.000931456476
0.000934558256
0.000937229332
0.000939521222
0.000941462309
0.000943068777
0.000944351418
0.000945319393
0.000945982119
0.000946350125
0.000946435574
0.000946015714
0.00094532812
0.000944620681
0.000943924007
0.000788311958
0.000818570848
0.000816731453
0.000829904255
0.000848762172
0.000868321904
0.00088563395
0.00089967401
0.000910608391
0.00091901378
0.000925508901
0.000930622045
0.000934748147
0.000938154919
0.000941011435
0.000943418415
0.000945432365
0.000947083009
0.000948385304
0.00094934721
0.000949974474
0.000950273464
0.000949460427
0.000948488559
0.000947196283
0.000945840235
0.000944683504
0.000943766579
0.0007886313
0.000819652345
0.000818595475
0.000832630581
0.000852371055
0.000872753847
0.000890757478
0.000905320342
0.000916608363
0.000925220628
0.000931807081
0.00093692686
0.000941000675
0.000944315559
0.000947053784
0.000949324045
0.000951186509
0.000952671153
0.000953790585
0.000954548621
0.000954094864
0.000953082693
0.00095110603
0.000949147398
0.000947304755
0.00094563459
0.000944193186
0.000943032956
0.00078888615
0.000820511821
0.000820079962
0.000834819245
0.000855302237
0.000876402879
0.000895037769
0.000910107906
0.000921771057
0.000930638371
0.000937381552
0.000942583357
0.000946685407
0.000949991079
0.000952694164
0.000954910389
0.00095670306
0.000958101974
0.000958781064
0.00095800218
0.000956104657
0.000953779035
0.000951443968
0.000949162088
0.000947001064
0.000945032217
0.00094332721
0.000941953183
0.000789094387
0.000821211442
0.000821289468
0.000836612693
0.000857726324
0.000879455395
0.000898664455
0.000914219394
0.00092626569
0.000935419449
0.000942366817
0.000947708099
0.000951901426
0.000955263648
0.000957998316
0.000960227205
0.000962016172
0.000962421065
0.00096146606
0.000959104316
0.000956574377
0.000953940724
0.000951272255
0.000948645036
0.000946142854
0.000943855294
0.000941873344
0.000940282921
0.000789267572
0.0008217915
0.000822292883
0.000838107186
0.000859761663
0.0008820437
0.000901774709
0.00091778892
0.00093021789
0.000939678211
0.000946865236
0.000952392121
0.000956729883
0.000960206281
0.000963032982
0.00096533679
0.000965675673
0.00096438202
0.000962065989
0.000959459841
0.000956633062
0.000953657798
0.000950614202
0.000947593598
0.000944699064
0.000942042937
0.000939741074
0.000937904163
0.00078941344
0.000822278965
0.000823136838
0.000839369144
0.000861491717
0.000884263054
0.000904469109
0.000920916324
0.00093372227
0.000943501462
0.000950954971
0.000956705449
0.000961234011
0.000964877363
0.000967676278
0.000968384136
0.000967012534
0.000964925072
0.000962406969
0.000959532175
0.000956372942
0.000953007969
0.000949528748
0.000946043587
0.000942678557
0.000939574586
0.000936880141
0.000934739531
0.000789537307
0.000822692371
0.000823853627
0.00084044523
0.000862976138
0.000886182708
0.000906821913
0.000923676279
0.000936850233
0.00094695502
0.000954695337
0.000960701047
0.000965461539
0.000968861467
0.000970169391
0.000969214707
0.000967570691
0.000965340529
0.000962604505
0.000959433182
0.000955898548
0.000952083617
0.000948090392
0.000944045449
0.000940101982
0.000936436984
0.000933242307
0.000930708975
0.000789642912
0.000823044747
0.000824466056
0.000841368712
0.000864257979
0.000887853281
0.000908888002
0.000926124389
0.000939655115
0.000950087929
0.000958130027
0.000964417223
0.000968803109
0.000970862962
0.000970792236
0.000969834322
0.000968121286
0.000965746086
0.000962779444
0.000959283951
0.000955326784
0.000950991298
0.000946387536
0.000941660541
0.000936994828
0.00093261277
0.000928764516
0.000925689215
0.000789732945
0.00082334544
0.000824990501
0.000842163598
0.000865368522
0.000889311797
0.000910707689
0.000928301494
0.00094217581
0.000952935246
0.00096128916
0.000967145255
0.00097037653
0.000971494231
0.000971490406
0.000970544966
0.000968776436
0.000966263376
0.000963061605
0.000959219575
0.000954792946
0.00094985878
0.000944529888
0.000938967683
0.000933391323
0.000928079619
0.000923344689
0.000919548122
0.000789809384
0.000823601294
0.000825438914
0.000842847392
0.000866330584
0.000890585237
0.000912310203
0.000930236831
0.000944439377
0.000955520041
0.000963444971
0.000968350916
0.000971012661
0.000972260869
0.000972350175
0.000971445794
0.00096964951
0.000967020788
0.00096359416
0.000959395773
0.000954459935
0.000948846861
0.000942662244
0.000936077287
0.000929346221
0.000922810108
0.00091687551
0.000912087311
0.000789873725
0.000823817446
0.000825820178
0.000843433003
0.000867160859
0.000891693127
0.000913716311
0.000931950424
0.00094646304
0.000957156092
0.000964338185
0.000968973739
0.000971816532
0.000973228561
0.000973450993
0.000972632774
0.000970855922
0.000968155711
0.000964537996
0.000959996276
0.000954529812
0.000948165669
0.000940985166
0.00093315455
0.000924956519
0.000916771429
0.000909224317
0.000903033836
0.000789927146
0.00082399788
0.000826141073
0.000843930118
0.000867871644
0.000892649502
0.000914940321
0.000933444216
0.00094764124
0.000957786534
0.00096492201
0.000969771577
0.000972831311
0.000974452775
0.000974863994
0.000974197017
0.000972511738
0.000969814597
0.000966074641
0.000961240007
0.00095525704
0.000948095778
0.00093978436
0.000930455153
0.000920366679
0.000910016193
0.00090023093
0.000892013038
0.000789970622
0.000824145841
0.000826406979
0.000844346228
0.00086847217
0.00089346444
0.000915914725
0.00093423409
0.000948053668
0.000958305404
0.000965668458
0.000970765978
0.000974087517
0.000975976225
0.000976648659
0.000976220788
0.000974729665
0.000972149698
0.000968405735
0.000963386475
0.000956962805
0.000949014402
0.000939471459
0.000928374164
0.00091587526
0.000902658349
0.000889724361
0.000878489502
0.000790005018
0.00082426413
0.00082662241
0.000844687427
0.000868969635
0.000894034009
0.000916391274
0.000934480882
0.00094848741
0.00095896183
0.000966580893
0.000971965071
0.000975600448
0.000977825061
0.000978847425
0.00097877061
0.000977611101
0.000975311211
0.000971747103
0.000966735843
0.000960047782
0.000951428814
0.00094064487
0.00092745215
0.000912035517
0.000894960011
0.000877503742
0.000861551282
0.000790031136
0.000824355338
0.000826791443
0.000844939178
0.000869249257
0.000894274715
0.000916568279
0.000934819122
0.000949028024
0.000959746001
0.000967650167
0.000973361608
0.0009773669
0.000980003739
0.000981478251
0.000981887043
0.00098123279
0.000979431561
0.000976313207
0.000971617769
0.000964993628
0.000956004823
0.000944075879
0.000928721493
0.000909458345
0.000887032971
0.000862758074
0.000839193529
0.000790037903
0.000824399077
0.000826868017
0.000845034623
0.000869329579
0.000894389724
0.00091681201
0.000935233828
0.00094965796
0.000960637794
0.000968853693
0.000974931052
0.000979361713
0.00098248925
0.000984525476
0.000985570889
0.000985627211
0.000984599211
0.000982285551
0.000978359396
0.000972341594
0.000963554473
0.000950896268
0.000932962513
0.00090943981
0.000879961886
0.000844906234
0.000807380042
0.000790029467
0.000824394855
0.000826867003
0.000845042652
0.000869396296
0.000894550344
0.000917106097
0.000935704563
0.000950352167
0.000961606833
0.000970155035
0.000976630303
0.000981534969
0.00098522573
0.000987930233
0.000989767107
0.00099075696
0.000990820279
0.000989759604
0.000987222373
0.000982639482
0.000974893922
0.000961982176
0.000942435591
0.000914189575
0.000875091553
0.000823656916
0.000767140642
0.000790023665
0.000824384135
0.000826868285
0.00084507743
0.000869492435
0.000894741454
0.000917430805
0.000936206099
0.000951078792
0.000962613225
0.000971504513
0.000978397812
0.000983810957
0.000988121109
0.000991582741
0.000994349287
0.000996485767
0.000997967566
0.000998660963
0.000998277474
0.000996228283
0.000990775116
0.000979766453
0.000960854448
0.000929381194
0.000879126357
0.000805692764
0.000734973117
0.000790022181
0.000824385425
0.000826885765
0.000845130093
0.000869605506
0.000894946117
0.000917763753
0.00093670937
0.000951800491
0.000963609244
0.000972841213
0.000980155782
0.000986090166
0.000991048023
0.000995320251
0.000999110745
0.00100255494
0.00100572709
0.00100863288
0.00101118024
0.00101283901
0.00101159386
0.00100615675
0.000993386582
0.000966878591
0.000915817907
0.000830632309
0.000753570707
0.00075451994
0.00083773645
0.000885276174
0.000937744692
0.000987158396
0.00102955373
0.00106359646
0.0010901661
0.0011108547
0.00112711214
0.00114008182
0.00115060686
0.00115928333
0.00116653141
0.00117265242
0.00117786666
0.00118233882
0.00118619551
0.00118953683
0.001192444
0.00119498432
0.00119721455
0.00119918321
0.00120093231
0.00120249883
0.00120391587
0.00120521359
0.00120641992
0.000771500847
0.000773525067
0.00075852018
0.000767400739
0.00078977997
0.000819503225
0.000851600995
0.000882846887
0.000911587385
0.000937129393
0.000959366767
0.000978535868
0.000995013407
0.00100919285
0.00102143181
0.00103203577
0.00104125772
0.00104930483
0.00105634719
0.00106252592
0.00106795967
0.00107274969
0.00107698368
0.00108073894
0.00108408484
0.00108708492
0.00108979835
0.00109228102
0.000791452978
0.000787119744
0.000747908015
0.000730791316
0.000728394192
0.000736328037
0.000750598396
0.000768061739
0.000786662709
0.000805108041
0.000822612036
0.000838767393
0.000853426033
0.000866591884
0.000878348336
0.000888814666
0.000898120399
0.000906391486
0.000913744115
0.00092028267
0.000926099696
0.00093127683
0.000935886262
0.000939992552
0.000943654637
0.000946927791
0.000949865321
0.000952519725
0.000801363372
0.000808448847
0.000768049738
0.000744581284
0.000732833679
0.000729874595
0.000733011883
0.000739976304
0.000749195085
0.000759598178
0.000770431091
0.000781182897
0.00079153371
0.000801298291
0.000810381666
0.000818748834
0.000826403326
0.000833371956
0.000839694444
0.000845416484
0.000850585076
0.000855245544
0.00085943998
0.000863206996
0.000866582539
0.000869601436
0.000872299181
0.000874713513
0.000805280861
0.000820722531
0.000784165575
0.00076196517
0.000749418849
0.000743737303
0.000742668052
0.000744518841
0.000748233239
0.000753146936
0.000758790039
0.000764817493
0.000770979542
0.000777096103
0.000783038525
0.000788718504
0.000794079854
0.000799091343
0.000803740456
0.000808027924
0.000811962881
0.000815558765
0.000818830288
0.000821791745
0.000824456739
0.000826839129
0.00082895479
0.000830823597
0.000807381468
0.000827651891
0.000794250582
0.000774201805
0.000763068797
0.000757937551
0.000756453086
0.000756991751
0.00075867324
0.000761053672
0.000763884618
0.000767009477
0.000770318077
0.000773721947
0.000777144405
0.000780519452
0.000783793047
0.000786923875
0.000789883061
0.000792652734
0.000795223597
0.000797591964
0.000799756923
0.000801718274
0.000803475645
0.00080502893
0.000806379831
0.00080753403
0.000808665202
0.000831925761
0.000800746366
0.000782415982
0.00077268282
0.000768636641
0.00076782441
0.000768561466
0.000769968297
0.000771649237
0.00077343711
0.000775271041
0.000777133323
0.000779014197
0.00078089799
0.000782761959
0.000784579736
0.000786325396
0.000787976668
0.000789516656
0.000790933938
0.00079222136
0.000793374182
0.000794388309
0.000795259228
0.000795982042
0.000796552622
0.000796969637
0.000809510376
0.000834771365
0.000805189703
0.000788184232
0.000779582231
0.000776503115
0.000776455604
0.000777716799
0.000779393868
0.000781096978
0.000782680164
0.000784115845
0.000785425634
0.000786639375
0.00078777742
0.00078884721
0.000789845741
0.000790763768
0.000791589973
0.000792314097
0.000792928566
0.00079342866
0.000793811651
0.000794075532
0.000794217977
0.000794236039
0.000794126799
0.000793888916
0.000810110021
0.00083678696
0.000808382892
0.000792414496
0.000784734093
0.000782471911
0.000783112941
0.00078491012
0.000786964236
0.000788891526
0.00079055867
0.000791954929
0.000793120769
0.000794104879
0.000794945153
0.000795664384
0.00079627209
0.000796768418
0.000797148442
0.000797405847
0.000797535397
0.000797534062
0.000797401007
0.000797136889
0.000796743022
0.000796220885
0.000795572292
0.000794800343
0.000810557347
0.000838282958
0.000810770738
0.000795625403
0.000788707087
0.000787143662
0.000788397427
0.000790698719
0.00079314055
0.0007953438
0.000797186268
0.00079867113
0.000799853112
0.000800793904
0.000801542449
0.000802130427
0.000802573994
0.000802877673
0.00080303879
0.000803051511
0.000802909924
0.000802609935
0.000802150073
0.000801531487
0.000800757521
0.000799833337
0.000798765885
0.000797564375
0.000810903572
0.000839435692
0.000812617775
0.000798135062
0.000791852501
0.000790891316
0.000792692255
0.00079546348
0.00079828715
0.000800784576
0.000802841033
0.000804470679
0.000805740085
0.000806721859
0.000807474024
0.000808035196
0.000808426264
0.000808654313
0.000808717184
0.000808607793
0.000808317688
0.000807839613
0.000807169103
0.000806305257
0.000805249706
0.000803518302
0.000801783711
0.000800074716
0.000811179631
0.00084035122
0.000814087444
0.000800146345
0.000794398621
0.000793958978
0.000796249059
0.000799456384
0.00080265068
0.00080545017
0.000807743743
0.000809553071
0.000810953796
0.000812027389
0.000812839486
0.000813434576
0.000813837461
0.000814057102
0.000814091182
0.000813930584
0.000813563289
0.000812977457
0.00081130284
0.000809437484
0.00080749321
0.000805007061
0.000802678857
0.000800558856
0.000811404893
0.00084109581
0.000815283878
0.0008017922
0.000796498628
0.00079651304
0.000799241009
0.000802851661
0.000806402141
0.000809505544
0.000812051506
0.000814066279
0.000815631978
0.000816836866
0.000817752659
0.000818428606
0.000818892612
0.000819154843
0.000819212182
0.000819052693
0.00081744945
0.000815665604
0.000812860814
0.000809968236
0.00080712839
0.000804398825
0.000801841816
0.000799521302
0.000811591944
0.000841712481
0.00081627553
0.000803161926
0.000798257663
0.000798669756
0.000801790755
0.00080577389
0.000809664469
0.000813069598
0.000815877866
0.000818118018
0.000819876639
0.000821247065
0.00082230574
0.000823105631
0.000823676895
0.000824030129
0.000823155214
0.000821674812
0.000818752626
0.000815694951
0.000812557344
0.000809395222
0.000806272259
0.00080326073
0.000800439578
0.000797890124
0.000811749248
0.000842230068
0.000817108641
0.000804316811
0.000799749217
0.000800511744
0.000803986683
0.000808313863
0.000812527984
0.000816230063
0.000819306743
0.000821787987
0.000823763463
0.000825330407
0.000826569036
0.000827535234
0.000827870418
0.000826921081
0.000824666285
0.000821770548
0.00081864751
0.000815346372
0.0008119223
0.000808440367
0.000804978064
0.000801625522
0.000798482803
0.000795653972
0.00081188264
0.000842668412
0.000817815183
0.000805299734
0.00080102545
0.000802098455
0.000805893175
0.000810538391
0.000815059598
0.000819052166
0.00082240057
0.000825135315
0.000827348452
0.00082914052
0.000830594978
0.000830804099
0.000829864693
0.000827520033
0.000824794847
0.000821736272
0.000818389945
0.000814805711
0.000811043368
0.000807177671