/*--------------------------------*- C++ -*----------------------------------*\
| =========                 |                                                 |
| \\      /  F ield         | foam-extend: Open Source CFD                    |
|  \\    /   O peration     | Version:     4.1                                |
|   \\  /    A nd           | Web:         http://www.foam-extend.org         |
|    \\/     M anipulation  |                                                 |
\*---------------------------------------------------------------------------*/
FoamFile
{
    version     2.0;
    format      ascii;
    class       volVectorField;
    location    "0.15";
    object      U;
}
// * * * * * * * * * * * * * * * * * * * * * * * * * * * * * * * * * * * * * //

dimensions      [0 1 -1 0 0 0 0];

internalField   nonuniform List<vector> 
35840
(
(3.94086076 0.268528214 0.261844191)
(3.20795574 0.371830738 0.357379538)
(2.43830132 0.266505568 0.249860631)
(1.72035655 0.156943129 0.141978841)
(1.29368175 0.0888145199 0.0772238606)
(1.05220024 0.0517217919 0.0439401205)
(0.893448427 0.0312013178 0.027098368)
(0.785244682 0.0189888309 0.0180833174)
(0.711729522 0.0115160619 0.0131463378)
(0.66008911 0.006939369 0.0104239115)
(0.622118443 0.00408316068 0.00881541073)
(0.593152988 0.00224911096 0.00773607691)
(0.570409164 0.00104707703 0.00691472837)
(0.552130631 0.000249556039 0.00622991535)
(0.537182668 -0.00028268144 0.00562751189)
(0.524807235 -0.000635809786 0.00508451203)
(0.514471574 -0.000863577708 0.0045911479)
(0.505778817 -0.00100092142 0.00414176456)
(0.498427762 -0.00107088348 0.00373177369)
(0.492175813 -0.00108814651 0.00335670673)
(0.486823772 -0.00106283103 0.00301202782)
(0.482205281 -0.00100277466 0.00269368246)
(0.478179493 -0.000914632086 0.00239861003)
(0.474625782 -0.000804380489 0.00212500379)
(0.471439467 -0.000677620427 0.00187237931)
(0.468528415 -0.000539655213 0.001641421)
(0.465810429 -0.000395410206 0.00143363421)
(0.463211491 -0.000249275728 0.00125087925)
(4.52124999 0.409952156 0.33139989)
(4.20224812 0.638134028 0.509000099)
(3.63676849 0.543491835 0.40727471)
(2.94290398 0.391284536 0.26150583)
(2.41566605 0.267495588 0.152219718)
(2.06115004 0.181535439 0.0859721477)
(1.80862958 0.124025724 0.0502577979)
(1.62437761 0.0850577131 0.0317497169)
(1.49032542 0.0584505674 0.022079032)
(1.39091193 0.0403081297 0.0169229775)
(1.31489985 0.0278557672 0.014005743)
(1.25526436 0.0191831353 0.0121480324)
(1.20750766 0.0130439714 0.0108014005)
(1.16859929 0.00862841966 0.00972659326)
(1.13645957 0.00540592395 0.00881586788)
(1.10963266 0.00302887394 0.00801822707)
(1.0870638 0.00126871676 0.00730782504)
(1.06796308 -2.70836502e-05 0.00666918963)
(1.05171186 -0.000961486293 0.00609022023)
(1.03781661 -0.00160449272 0.0055595023)
(1.02587721 -0.00200489125 0.00506620533)
(1.01556062 -0.0021980175 0.00460093586)
(1.00658312 -0.00221151717 0.00415651671)
(0.998698979 -0.00206927925 0.00372851729)
(0.991691436 -0.00179397796 0.00331561705)
(0.985365934 -0.00140847895 0.00291956257)
(0.979545578 -0.00093626988 0.00254464561)
(0.974068707 -0.000401157798 0.00219677211)
(4.44213385 0.221359508 0.337951977)
(4.08278575 0.436511076 0.518819152)
(3.65714163 0.463107977 0.418089406)
(3.13713205 0.408842895 0.275889458)
(2.71979906 0.33187292 0.166458851)
(2.42184486 0.25757748 0.0961064043)
(2.19813683 0.195641392 0.0564774201)
(2.02640537 0.147010759 0.0358972162)
(1.8949234 0.109745869 0.0253593883)
(1.79253458 0.0815905554 0.0198224153)
(1.71068879 0.0604713684 0.0166913202)
(1.64396158 0.0446378067 0.0146517312)
(1.58880779 0.0327143442 0.0131058598)
(1.54272194 0.0236659166 0.0118154927)
(1.50388241 0.0167360748 0.0106894815)
(1.4709387 0.0113848792 0.00969071619)
(1.44285822 0.00723241886 0.00880121616)
(1.41882795 0.00401316664 0.00800816627)
(1.39819227 0.00154208477 0.0072986022)
(1.38041443 -0.000309888133 0.00665845884)
(1.36504252 -0.00163243275 0.00607309871)
(1.3516962 -0.00248880325 0.00552851737)
(1.34004722 -0.00292579989 0.00501273728)
(1.32980723 -0.0029824111 0.00451685683)
(1.32071802 -0.00269639765 0.00403581481)
(1.31254411 -0.00210869899 0.00356871425)
(1.30506774 -0.00126566432 0.00311855861)
(1.29808643 -0.000219268227 0.00269139002)
(4.41370747 0.123367513 0.337929245)
(3.97527265 0.285989248 0.516843528)
(3.52614484 0.346931723 0.410945178)
(3.04827035 0.341747691 0.267056432)
(2.6965117 0.30470723 0.158688823)
(2.46050817 0.256392827 0.0893127935)
(2.28812526 0.208497414 0.0503502571)
(2.15604454 0.166203486 0.0306501511)
(2.0536157 0.130789967 0.0211787624)
(1.97177126 0.101935712 0.0166854019)
(1.90402505 0.0787924541 0.014468145)
(1.84668284 0.0603850921 0.013169645)
(1.7975839 0.0457882028 0.0121807469)
(1.75527287 0.0342030689 0.0112821564)
(1.71868455 0.024980674 0.0104178798)
(1.68699383 0.0176158707 0.00958650105)
(1.65952386 0.0117270589 0.00879966695)
(1.6356978 0.00703195494 0.00806708033)
(1.61501563 0.00332534359 0.00739201861)
(1.59704097 0.000461086362 0.00677160545)
(1.58139077 -0.00166286915 0.00619861502)
(1.56772752 -0.00311694984 0.00566389976)
(1.55575138 -0.00395066036 0.00515783804)
(1.5451926 -0.00420337574 0.00467196075)
(1.53580469 -0.00391397504 0.00420026034)
(1.52735853 -0.00312839264 0.00374003145)
(1.51963823 -0.00190448665 0.00329217089)
(1.51243899 -0.000313847995 0.00286089137)
(4.40562832 0.083885021 0.338530396)
(3.92709353 0.205866749 0.5186677)
(3.43458234 0.264627494 0.409526249)
(2.942738 0.274627317 0.261034345)
(2.60543081 0.257649354 0.150311873)
(2.39688218 0.22793919 0.0806005479)
(2.25546951 0.194171853 0.0421479471)
(2.15330748 0.161427424 0.0232704609)
(2.07742211 0.131986748 0.0147414747)
(2.01796758 0.106500126 0.0111881231)
(1.96854135 0.0848967185 0.00984604702)
(1.92589452 0.0668169672 0.00933106332)
(1.88844474 0.0518006171 0.00901824561)
(1.85532692 0.0393808096 0.00868391718)
(1.82600753 0.0291326145 0.0082795432)
(1.80010486 0.0206939033 0.00781753243)
(1.777294 0.0137694514 0.00732497006)
(1.75726831 0.00812643536 0.00682636587)
(1.73973088 0.00358669214 0.00633826351)
(1.72439518 1.85537214e-05 0.00586905801)
(1.71099039 -0.00267186533 0.00542115127)
(1.69926076 -0.00454870191 0.00499333269)
(1.68896764 -0.00565532711 0.00458207596)
(1.6798877 -0.00602457286 0.00418313266)
(1.67181049 -0.00568917717 0.00379285401)
(1.66453564 -0.00469127247 0.00340915135)
(1.65787039 -0.00308968737 0.00303210958)
(1.65162839 -0.000963980737 0.00266421217)
(4.40178178 0.061355275 0.339164855)
(3.90241708 0.153217467 0.52051394)
(3.38074179 0.204399719 0.41009917)
(2.86921383 0.221064995 0.258748413)
(2.52750462 0.215725695 0.14597997)
(2.32477089 0.198052036 0.0755299534)
(2.19489099 0.174594942 0.0370222726)
(2.10723671 0.149736578 0.0183399062)
(2.04673129 0.125914254 0.0101162119)
(2.00217406 0.104194768 0.00691219581)
(1.96647751 0.0849223235 0.00592784732)
(1.93610279 0.068100581 0.00576888533)
(1.90940456 0.0535749337 0.00580438018)
(1.88559348 0.0411262147 0.00580184098)
(1.86428639 0.0305222889 0.00570514825)
(1.84527986 0.0215451006 0.00552251757)
(1.82842601 0.0140031424 0.00527973328)
(1.81357855 0.00773589979 0.00500208956)
(1.80057774 0.00261431351 0.0047083923)
(1.78924952 -0.00146102256 0.00441025879)
(1.77941337 -0.00456294407 0.00411415303)
(1.77088351 -0.00674133907 0.00382299859)
(1.76347521 -0.00802954717 0.00353726302)
(1.75700644 -0.00845246505 0.00325616498)
(1.75129883 -0.00803596845 0.00297858099)
(1.74617765 -0.0068166508 0.00270370372)
(1.74147168 -0.00485038327 0.00243155196)
(1.7370134 -0.0022181512 0.0021633264)
(4.39956822 0.0466842999 0.339653796)
(3.88830274 0.117713338 0.52195431)
(3.34831441 0.161224764 0.411270001)
(2.82102788 0.180119878 0.258566689)
(2.47120782 0.181381689 0.144564128)
(2.26666479 0.171485288 0.0735015245)
(2.13922474 0.15537302 0.0347881211)
(2.05690439 0.136613047 0.0160498341)
(2.00342132 0.117447271 0.00782530041)
(1.96664285 0.0990819807 0.00464215422)
(1.93889778 0.0820909063 0.00368641306)
(1.91629281 0.0667018197 0.00356752674)
(1.89696732 0.0529587862 0.0036616204)
(1.88001708 0.0408132911 0.00373703652)
(1.86501753 0.0301759421 0.00373381409)
(1.85177271 0.0209450043 0.0036550968)
(1.84017098 0.0130215331 0.00352188493)
(1.83011646 0.00631709098 0.00335551034)
(1.82150333 0.000757545762 0.00317185683)
(1.8142099 -0.00371595002 0.00298095291)
(1.80809941 -0.00714667389 0.00278879497)
(1.80302225 -0.00956362117 0.00259849329)
(1.79882048 -0.010985792 0.00241134561)
(1.79533056 -0.011428146 0.0022277164)
(1.79238586 -0.0109094351 0.00204751983)
(1.78981879 -0.00946118036 0.00187050074)
(1.78746293 -0.00713635535 0.00169646362)
(1.78515546 -0.00401609097 0.00152550821)
(4.39821722 0.0366434706 0.340043492)
(3.87961455 0.0929679505 0.523110661)
(3.32761869 0.129539042 0.41249703)
(2.78860281 0.148145455 0.259134448)
(2.43112638 0.152887181 0.144409648)
(2.22287839 0.148040764 0.0729521304)
(2.09461783 0.137213193 0.0341044731)
(2.01359791 0.123180148 0.0153201108)
(1.96284363 0.107848738 0.00705943108)
(1.92965171 0.0923981231 0.00382943073)
(1.90597078 0.0775054801 0.00281235262)
(1.88766151 0.0635346778 0.00262571903)
(1.87269539 0.0506642241 0.00265783101)
(1.86005441 0.0389680511 0.00268513255)
(1.84924251 0.0284640289 0.00265057097)
(1.84002462 0.0191422821 0.00255707507)
(1.83227356 0.0109815001 0.00242390653)
(1.82589371 0.00395822762 0.00227001692)
(1.82078839 -0.00194813199 0.00210885228)
(1.81684995 -0.00675286063 0.00194859577)
(1.81395281 -0.0104641959 0.00179378985)
(1.81195595 -0.0130843058 0.00164647212)
(1.8107039 -0.0146121791 0.00150740173)
(1.8100291 -0.0150483762 0.00137676472)
(1.80975492 -0.0144018679 0.00125443096)
(1.8096995 -0.0126983007 0.00113999867)
(1.80968033 -0.0099884249 0.00103277324)
(1.80951964 -0.00635502901 0.000931843277)
(4.39732337 0.02936879 0.340350323)
(3.87389209 0.0747870677 0.524007046)
(3.31373449 0.105391583 0.413537927)
(2.7660974 0.122584248 0.259834784)
(2.40219802 0.128939284 0.144690406)
(2.1900393 0.127268329 0.0729992714)
(2.0598665 0.120145868 0.0340854924)
(1.97848835 0.109679818 0.0152910921)
(1.92849475 0.0974247209 0.00701762256)
(1.89680325 0.0844419032 0.00375651762)
(1.87509796 0.0714191299 0.00268744562)
(1.85906596 0.0587846633 0.00243319542)
(1.846561 0.0467989023 0.00239164947)
(1.83648382 0.0356195451 0.00234753786)
(1.82828366 0.0253433925 0.00224874849)
(1.8216909 0.0160322292 0.00210053487)
(1.81655906 0.00772883677 0.00192288624)
(1.81278387 0.000466766824 0.0017345165)
(1.8102674 -0.00572433094 0.00154831848)
(1.8089018 -0.0108151277 0.00137192363)
(1.80856173 -0.0147751728 0.0012091225)
(1.80910191 -0.0175739985 0.0010613796)
(1.81035622 -0.0191836995 0.000929095154)
(1.81213901 -0.0195837013 0.000812210723)
(1.81424816 -0.0187677975 0.000710393671)
(1.81647051 -0.016752605 0.000623000864)
(1.81858923 -0.0135861302 0.000548891176)
(1.82039272 -0.00935495879 0.000486386839)
(4.3966987 0.0238544332 0.340587872)
(3.86993267 0.0608909195 0.524693774)
(3.30404647 0.0864752654 0.414372847)
(2.75002389 0.101813417 0.260486958)
(2.38091003 0.108635767 0.145090526)
(2.16513414 0.108817202 0.073253964)
(2.03274357 0.104182018 0.0343016382)
(1.95030859 0.0963091173 0.0155082526)
(1.90014488 0.0864323243 0.00723486832)
(1.86891103 0.0754594031 0.0039605916)
(1.84809744 0.0640321148 0.00286206117)
(1.83325745 0.052590558 0.00256420561)
(1.82215316 0.0414344791 0.00247046134)
(1.81362314 0.0307724016 0.00237112323)
(1.80707578 0.0207553192 0.00221792165)
(1.80221645 0.0114987203 0.00201835684)
(1.79888555 0.00309710616 0.00179361658)
(1.79697364 -0.00436685071 0.00156298066)
(1.79638242 -0.0108165508 0.00133982527)
(1.79700442 -0.0161778925 0.0011319625)
(1.79871274 -0.0203785347 0.00094319729)
(1.80135476 -0.0233492129 0.000775101158)
(1.80474882 -0.0250272247 0.000628262676)
(1.80868406 -0.0253624165 0.000502842892)
(1.8129234 -0.0243255662 0.000398565214)
(1.81720987 -0.0219183859 0.000314619774)
(1.82127699 -0.0181836129 0.000249660528)
(1.82486231 -0.0132133806 0.000201743799)
(4.39624582 0.0195305685 0.340771134)
(3.86708656 0.0499348209 0.52522169)
(3.29705158 0.0712928127 0.415032404)
(2.73822437 0.084659383 0.261042475)
(2.36491621 0.0912697105 0.14548588)
(2.14595879 0.0924042726 0.073553002)
(2.01135956 0.0893563044 0.0345734445)
(1.92757996 0.0832978451 0.015780766)
(1.87677339 0.0751910419 0.00750914857)
(1.84542808 0.0657876724 0.00422872975)
(1.82489669 0.0556563462 0.00311362846)
(1.81062999 0.0452160635 0.00278957175)
(1.80031638 0.0347753354 0.0026629848)
(1.7927437 0.0245676846 0.00252736133)
(1.78728742 0.0147776738 0.00233672213)
(1.78363401 0.00555885377 0.00209992736)
(1.78161531 -0.0029538811 0.00183890622)
(1.78112104 -0.0106357878 0.00157356967)
(1.78205571 -0.0173664468 0.00131781723)
(1.78431544 -0.0230268151 0.00107968794)
(1.78777344 -0.0274988675 0.000863334453)
(1.79227012 -0.0306676368 0.000670810729)
(1.79760706 -0.0324262852 0.000503098677)
(1.80354409 -0.0326843975 0.000360643254)
(1.80980136 -0.0313791783 0.000243518835)
(1.81606677 -0.028488796 0.000151306706)
(1.82200951 -0.0240460269 8.29051363e-05)
(1.82729915 -0.0181494425 3.63675913e-05)
(4.39590687 0.0160484595 0.340912934)
(3.86497172 0.041074987 0.525630412)
(3.29184269 0.0588503815 0.415551901)
(2.72933143 0.0702879721 0.261499008)
(2.35264179 0.0763064732 0.145835741)
(2.13094225 0.0778009882 0.0738368358)
(1.99426953 0.0756921786 0.0348365406)
(1.90905168 0.0708455899 0.0160419563)
(1.85735503 0.0640024226 0.00776971867)
(1.82556214 0.0557715879 0.00448402531)
(1.80493317 0.0466394994 0.00335732785)
(1.79084486 0.0369857322 0.00301578525)
(1.78092938 0.0271072647 0.0028675406)
(1.77393488 0.0172436146 0.00270788261)
(1.7692114 0.00759658246 0.00249203773)
(1.76643183 -0.00165551471 0.00222945945)
(1.76542405 -0.0103472075 0.00194251132)
(1.76608124 -0.0183178206 0.00165152875)
(1.76831524 -0.0254059576 0.00137049755)
(1.77202958 -0.0314467607 0.00110764012)
(1.77710091 -0.036271707 0.000867405453)
(1.78336505 -0.0397117073 0.000652214256)
(1.79060657 -0.041604176 0.000463493847)
(1.79855267 -0.0418045865 0.000302248147)
(1.80687314 -0.0402023901 0.000169141284)
(1.81518812 -0.0367400661 6.43052228e-05)
(1.82308491 -0.0314327925 -1.29054447e-05)
(1.83014371 -0.0243848858 -6.4146603e-05)
(4.39564582 0.0131853911 0.341023519)
(3.86335282 0.033767169 0.525950341)
(3.28785143 0.0484832642 0.415963601)
(2.72245537 0.0581078775 0.261870593)
(2.34301249 0.0633381324 0.146133307)
(2.11896049 0.0648103226 0.074087815)
(1.98038956 0.0631832193 0.0350713629)
(1.89373416 0.0590939239 0.0162730113)
(1.84102108 0.053107608 0.00799784123)
(1.808572 0.0457085664 0.00470629441)
(1.78758925 0.0373016124 0.00356982052)
(1.77340016 0.0282180144 0.00321492328)
(1.76359777 0.0187304217 0.00305084528)
(1.7569025 0.00907076566 0.00287390296)
(1.75264764 -0.000554817463 0.00263986873)
(1.7504993 -0.00995433411 0.00235853742)
(1.75028809 -0.0189402139 0.00205255269)
(1.75191683 -0.0273215207 0.00174219074)
(1.75531091 -0.0348983415 0.0014413132)
(1.76038765 -0.0414584031 0.00115819605)
(1.76703333 -0.0467767422 0.000897471128)
(1.77508398 -0.0506196049 0.000661857901)
(1.78430934 -0.0527538262 0.000453226923)
(1.79440171 -0.0529626907 0.000273153336)
(1.80497218 -0.0510683906 0.000122964955)
(1.81555739 -0.0469597122 3.538155e-06)
(1.82563939 -0.0406215544 -8.50228293e-05)
(1.83467966 -0.0321606415 -0.000143749903)
(4.39543942 0.0107943225 0.341110878)
(3.86207897 0.0276492477 0.52620448)
(3.28470911 0.0397362353 0.416293778)
(2.71700277 0.0476935951 0.262173939)
(2.33528499 0.0520507766 0.146383226)
(2.10920529 0.0532626852 0.0743039422)
(1.96891053 0.0518016084 0.0352749515)
(1.88085992 0.0481343963 0.0164722278)
(1.827069 0.0426870361 0.00819297884)
(1.79382821 0.0358376041 0.00489531268)
(1.7723071 0.027914364 0.00375011955)
(1.75780334 0.0191969183 0.003384211)
(1.74788603 0.00992570933 0.00320757142)
(1.74125957 0.000315071663 0.00301707046)
(1.73724988 -0.0094349603 0.00276885782)
(1.73552538 -0.0191281828 0.00247303203)
(1.73592788 -0.0285628804 0.00215210505)
(1.73837843 -0.0375236649 0.00182600427)
(1.74282556 -0.0457745475 0.00150841414)
(1.74921087 -0.0530540618 0.00120754922)
(1.75744082 -0.0590738662 0.000928111479)
(1.76736096 -0.0635227115 0.000673037351)
(1.77873244 -0.0660778895 0.000444575227)
(1.79121309 -0.0664261162 0.000244865201)
(1.80434701 -0.0642946779 7.60217335e-05)
(1.81756782 -0.0594916531 -6.0089738e-05)
(1.83022075 -0.0519508474 -0.000162264133)
(1.84160678 -0.0417732003 -0.000230495902)
(4.39527215 0.0087752675 0.341181098)
(3.86105015 0.0224734488 0.526409979)
(3.28216953 0.0322910654 0.416562748)
(2.71256946 0.0387362541 0.262424082)
(2.32893838 0.0422041259 0.146593338)
(2.10109214 0.0430165812 0.074488888)
(1.95922864 0.0415102644 0.0354502638)
(1.86983816 0.0380240904 0.0166433842)
(1.8149406 0.0328737946 0.00835984135)
(1.78081383 0.0263475723 0.00505630729)
(1.75861171 0.0187035958 0.00390339091)
(1.74361705 0.0101692515 0.00352815413)
(1.73338733 0.000947555614 0.00334104504)
(1.7266212 -0.00877268146 0.00313940874)
(1.72264731 -0.0188063393 0.00287984519)
(1.72114602 -0.028962037 0.00257234872)
(1.72198015 -0.0390324143 0.00223894348)
(1.7251006 -0.0487842761 0.00189919879)
(1.73049256 -0.057949065 0.00156655234)
(1.73813733 -0.0662150463 0.00124905316)
(1.74797817 -0.0732231986 0.000951329064)
(1.75988644 -0.078569655 0.000676391635)
(1.77362775 -0.0818181545 0.000426796403)
(1.78883127 -0.0825260408 0.000205260717)
(1.80496783 -0.0802862493 1.48212743e-05)
(1.82134502 -0.0747850652 -0.000141356005)
(1.83712879 -0.0658706537 -0.000260451941)
(1.85139938 -0.0536207277 -0.000340770662)
(4.39513338 0.00705855807 0.341238756)
(3.86019838 0.0180663426 0.526579536)
(3.28006463 0.0259214864 0.416785864)
(2.70887539 0.0310099147 0.262633336)
(2.32360363 0.0336150657 0.146771502)
(2.0941962 0.0339571451 0.074647792)
(1.95089335 0.032271524 0.0356018047)
(1.86021645 0.0287995331 0.0167913495)
(1.80419724 0.023768724 0.008503808)
(1.7691118 0.0173909247 0.00519496909)
(1.7461093 0.00986046843 0.00403530458)
(1.73046768 0.00135284989 0.00365202227)
(1.71974183 -0.0079704385 0.00345607503)
(1.71263382 -0.0179527187 0.00324549041)
(1.70848393 -0.0284323246 0.0029768736)
(1.70699358 -0.0392325746 0.00265968755)
(1.70805786 -0.0501504637 0.0023154879)
(1.71167157 -0.0609437495 0.00196348702)
(1.71787409 -0.0713173236 0.00161674397)
(1.72670774 -0.0809103529 0.00128295175)
(1.73817727 -0.0892868563 0.000966495226)
(1.75220597 -0.0959337619 0.000670300767)
(1.76858775 -0.10027178 0.000397092493)
(1.78693875 -0.101685225 0.00015012425)
(1.80665611 -0.0995763377 -6.65058318e-05)
(1.82689636 -0.0934466238 -0.000247906813)
(1.84658989 -0.08300091 -0.000388860792)
(1.86450884 -0.0682587919 -0.000484925922)
(4.39501574 0.00559462775 0.34128725)
(3.85947663 0.0143041151 0.526722487)
(3.27827778 0.0204640761 0.416974566)
(2.70572413 0.0243479279 0.262811308)
(2.31901741 0.0261444511 0.14692447)
(2.08820806 0.0259934154 0.0747855829)
(1.9435695 0.024052463 0.0357339615)
(1.85165101 0.0204870085 0.0169205934)
(1.79449843 0.0154529705 0.00862953551)
(1.75839142 0.00909654915 0.00531600311)
(1.73448028 0.00155336602 0.00415035653)
(1.71804392 -0.00705285734 0.00376013436)
(1.70664121 -0.0166054693 0.00355716824)
(1.69898419 -0.0269864512 0.00333966892)
(1.69443127 -0.0380671226 0.00306375616)
(1.69271351 -0.0496971154 0.00273841889)
(1.69376977 -0.0616903962 0.00238483569)
(1.6976545 -0.0738082495 0.00202169918)
(1.70448271 -0.0857396295 0.00166149828)
(1.71438579 -0.0970804992 0.00131138231)
(1.72746482 -0.107315306 0.000975266056)
(1.74373481 -0.115805889 0.00065574207)
(1.76305839 -0.121795646 0.000355465647)
(1.7850714 -0.124439113 7.80919586e-05)
(1.80910994 -0.122867986 -0.000171104442)
(1.83415671 -0.116302374 -0.000384946849)
(1.85883409 -0.104207062 -0.000554637684)
(1.88147806 -0.0864762126 -0.000671358074)
(4.39491405 0.00434750767 0.341329071)
(3.85885207 0.0110966862 0.526845636)
(3.27672743 0.0157989321 0.41713726)
(2.70297718 0.018626193 0.262965264)
(2.31499173 0.0196865826 0.147057626)
(2.08290345 0.0190547702 0.0749064063)
(1.93701018 0.0168272039 0.0358504316)
(1.84388444 0.0131089697 0.0170347346)
(1.78558521 0.00799676807 0.00874058525)
(1.74839679 0.00157934107 0.00542274463)
(1.72347236 -0.0060627118 0.00425177389)
(1.70609493 -0.0148571146 0.00385613704)
(1.69383054 -0.0247354303 0.00364795882)
(1.6854038 -0.0356258214 0.00342507199)
(1.68019545 -0.0474436354 0.00314325283)
(1.67797277 -0.0600787932 0.00281117335)
(1.67872892 -0.0733789073 0.00244946965)
(1.68259431 -0.0871270936 0.00207615637)
(1.68978404 -0.101014407 0.00170297659)
(1.70055373 -0.114608036 0.00133630445)
(1.71514781 -0.127318397 0.000979286826)
(1.73373147 -0.138371545 0.000633831136)
(1.75630129 -0.146797536 0.000302160939)
(1.78257422 -0.151450483 -1.1928826e-05)
(1.81186427 -0.151080484 -0.000301923738)
(1.84297035 -0.14447865 -0.000557674907)
(1.87411741 -0.130707456 -0.000765220576)
(1.90302159 -0.109406455 -0.000908437195)
(4.3948247 0.00329051986 0.341366008)
(3.8583018 0.00837711089 0.52695387)
(3.27535667 0.0118364 0.417280025)
(2.7005375 0.0137509437 0.263100552)
(2.31139375 0.0141605887 0.147175062)
(2.07812232 0.0130867814 0.075013494)
(1.9310375 0.0105768837 0.0359540675)
(1.83672966 0.00668717873 0.0171364147)
(1.77726756 0.00146437787 0.00883928726)
(1.73893797 -0.00505422416 0.00551740856)
(1.71289664 -0.0128395338 0.00434238723)
(1.69443037 -0.0218704891 0.00394291834)
(1.68111089 -0.0321311505 0.00373076731)
(1.67167475 -0.0436042607 0.00350364585)
(1.66552564 -0.0562616256 0.00321717665)
(1.66247009 -0.0700505603 0.0028795842)
(1.66256292 -0.0848741801 0.0025108354)
(1.66602521 -0.100563655 0.00212812068)
(1.67319811 -0.116841156 0.00174223851)
(1.68450265 -0.133273293 0.00135851241)
(1.70038735 -0.149217292 0.00097895719)
(1.72125003 -0.163766345 0.000604348134)
(1.74732248 -0.175707198 0.000236002637)
(1.77851106 -0.183512527 -0.000122492489)
(1.8141966 -0.185401805 -0.000463276319)
(1.85301965 -0.179514701 -0.000772360198)
(1.89271138 -0.164238482 -0.00102793551)
(1.9301024 -0.138709428 -0.00120169238)
(4.39474517 0.00240330588 0.341399309)
(3.8578101 0.00609421008 0.52705061)
(3.27412655 0.00850758975 0.417407143)
(2.69833853 0.00964951757 0.263220982)
(2.30813214 0.00950317203 0.147279737)
(2.07375446 0.00804673867 0.0751091888)
(1.92552902 0.00528799635 0.0360468278)
(1.83005809 0.00124296745 0.0172271652)
(1.76941499 -0.00408475862 0.00892703032)
(1.72988604 -0.0107034829 0.00560219911)
(1.70262641 -0.0186321126 0.00442454299)
(1.68292185 -0.0279013964 0.00402218486)
(1.66834495 -0.0385522984 0.00380690977)
(1.6576394 -0.0506305518 0.00357652954)
(1.65022748 -0.0641781656 0.00328641662)
(1.6459523 -0.0792200297 0.00294424153)
(1.64493182 -0.0957425316 0.00256918714)
(1.6474875 -0.113660969 0.00217745387)
(1.6541098 -0.132772491 0.00177865169)
(1.66542946 -0.152691943 0.00137671663)
(1.68217282 -0.172770064 0.000972100018)
(1.7050812 -0.191998046 0.000563934381)
(1.73477261 -0.208911653 0.000152117668)
(1.77152462 -0.221523686 -0.000260290194)
(1.81496454 -0.227335752 -0.000663766001)
(1.86368294 -0.223511589 -0.00103889619)
(1.91485118 -0.207309926 -0.00134988819)
(1.96403793 -0.176884818 -0.00154668179)
(4.39467381 0.0016696887 0.3414298)
(3.85736659 0.00420723758 0.527138142)
(3.27301155 0.00575733903 0.417521504)
(2.6963369 0.00626312723 0.263329139)
(2.30514774 0.00566236665 0.147373661)
(2.06972947 0.00389913656 0.075194986)
(1.92040781 0.000949228849 0.0361296293)
(1.82379041 -0.00320537508 0.0173077027)
(1.76195092 -0.00859702074 0.00900555926)
(1.7211705 -0.0152736316 0.00567909654)
(1.69259661 -0.0232994533 0.00449950245)
(1.67150646 -0.0327571263 0.00409481603)
(1.65546519 -0.0437475939 0.0038770774)
(1.64321381 -0.0563873125 0.00364412855)
(1.63418218 -0.0708024854 0.0033509957)
(1.62823917 -0.0871179045 0.00300468985)
(1.62555787 -0.105436426 0.00262345232)
(1.62655932 -0.125804171 0.00222224793)
(1.63189722 -0.148155469 0.00180913993)
(1.64245206 -0.172230813 0.00138621772)
(1.65930922 -0.197461497 0.000951848047)
(1.68369343 -0.222818101 0.000503032002)
(1.71682315 -0.246630185 3.79913235e-05)
(1.75963829 -0.266405856 -0.000440513478)
(1.81234652 -0.278718426 -0.000920400977)
(1.87378364 -0.279303124 -0.00137424007)
(1.94060244 -0.263544293 -0.00174165672)
(2.00665291 -0.227712641 -0.00193687622)
(4.39460957 0.00107607472 0.341457972)
(3.85696497 0.0026818803 0.527217881)
(3.27199643 0.00353880525 0.417624917)
(2.69450717 0.00354105199 0.263426633)
(2.30240703 0.00259221132 0.147458003)
(2.0660091 0.000610843274 0.0752713796)
(1.91563409 -0.00245359433 0.036202672)
(1.81789091 -0.00664601945 0.0173794833)
(1.75484909 -0.0120271169 0.00907662272)
(1.71277641 -0.0186796276 0.00574905866)
(1.68280418 -0.0267095641 0.00456786557)
(1.66019159 -0.0362492825 0.00416123761)
(1.64248411 -0.0474605917 0.00394142246)
(1.62840461 -0.0605361153 0.00370620058)
(1.61737173 -0.0756983775 0.00341014628)
(1.60925853 -0.0931940272 0.00305943857)
(1.60427083 -0.113278504 0.00267108498)
(1.60291068 -0.136184562 0.002258358)
(1.60598922 -0.162065482 0.00182713138)
(1.6146586 -0.190900404 0.00137684442)
(1.63043691 -0.222345998 0.000902931649)
(1.65519175 -0.255517891 0.000399754448)
(1.69102765 -0.288691109 -0.000135520656)
(1.73999049 -0.31893004 -0.000697332141)
(1.80346439 -0.341715729 -0.00126291432)
(1.88118893 -0.350770149 -0.00178735392)
(1.96965347 -0.338368211 -0.00216814612)
(2.06060942 -0.297132329 -0.0022990939)
(4.39455193 0.000610154969 0.341484071)
(3.85660212 0.00148716477 0.527290572)
(3.27107403 0.00180926008 0.417718351)
(2.69283822 0.00143602323 0.263514241)
(2.2998968 0.000247726509 0.147532995)
(2.06258032 -0.00185476961 0.0753382947)
(1.91120013 -0.00494191401 0.0362672129)
(1.81236355 -0.00907710099 0.0174441397)
(1.74812859 -0.0143436701 0.00914095908)
(1.70474138 -0.0208534373 0.00581248513)
(1.67330852 -0.0287479614 0.00462988837)
(1.64905962 -0.0382043112 0.00422148075)
(1.6295048 -0.049442343 0.00399964448)
(1.6133279 -0.0627316324 0.00376199228)
(1.59990909 -0.0783979228 0.0034624606)
(1.58909113 -0.0968267958 0.0031060657)
(1.58107121 -0.118459768 0.00270802382)
(1.57638715 -0.143775267 0.00227903499)
(1.57596665 -0.173242464 0.00182148712)
(1.58121462 -0.207228948 0.00133041352)
(1.59411757 -0.245833876 0.000796260672)
(1.61733114 -0.288607516 0.000209014431)
(1.65418147 -0.334110528 -0.000435090553)
(1.70844666 -0.379272713 -0.00112094363)
(1.78372337 -0.418600188 -0.00179433652)
(1.88204441 -0.44328871 -0.00235266115)
(2.00097959 -0.440758328 -0.00256286419)
(2.13055685 -0.396380532 -0.0023598937)
(4.39450083 0.000259679891 0.341508285)
(3.85627765 0.000592918746 0.527356576)
(3.27024368 0.000527136277 0.417802134)
(2.69132986 -0.000100284344 0.263591863)
(2.29761881 -0.00142025306 0.147598543)
(2.05945126 -0.00354198921 0.0753968189)
(1.90712653 -0.00654754627 0.0363248518)
(1.80724564 -0.0105125661 0.0175022222)
(1.74184809 -0.0155369166 0.00919880704)
(1.69715192 -0.0217531661 0.00586948675)
(1.66423013 -0.0293296319 0.00468550932)
(1.63827015 -0.0384793306 0.00427525707)
(1.616729 -0.0494718402 0.00405115157)
(1.5982265 -0.0626469644 0.00381045838)
(1.5820695 -0.078430905 0.00350615319)
(1.56802256 -0.0973536823 0.00314151707)
(1.55621064 -0.120064185 0.00272898466)
(1.54712689 -0.147336123 0.00227503915)
(1.54172203 -0.180052168 0.00177599532)
(1.54156206 -0.219142785 0.00121869282)
(1.54904836 -0.265438195 0.000583586779)
(1.56768166 -0.319364176 -0.00014940571)
(1.60230634 -0.380373513 -0.000989701835)
(1.65919567 -0.446010316 -0.0019139004)
(1.74570759 -0.510476048 -0.00284292512)
(1.86886834 -0.562495753 -0.00361391788)
(2.03106958 -0.583230279 -0.00373095249)
(2.22495364 -0.544234178 -0.00326218349)
(4.39445709 1.29472747e-05 0.34153126)
(3.8559945 -3.14170776e-05 0.527416474)
(3.26950958 -0.000351903372 0.417876065)
(2.6899891 -0.00112064017 0.263659657)
(2.29558732 -0.00246777403 0.147655556)
(2.05664795 -0.00450473946 0.0754484019)
(1.90345549 -0.00731775709 0.0363760061)
(1.80260046 -0.010988943 0.017553802)
(1.73609955 -0.01562644 0.00925011157)
(1.6901374 -0.02137351 0.00591988934)
(1.65574551 -0.0284136767 0.00473443042)
(1.62805733 -0.0369825471 0.00432212523)
(1.60445924 -0.0473840978 0.00409528595)
(1.58348084 -0.0600113942 0.003850564)
(1.56431626 -0.0753737521 0.00353950018)
(1.54659366 -0.0941311092 0.00316276679)
(1.53028096 -0.117134999 0.00272841107)
(1.51570669 -0.145473365 0.00223582424)
(1.50368296 -0.180510972 0.00167030661)
(1.49573595 -0.223904838 0.00100250718)
(1.49446956 -0.277548577 0.000191051686)
(1.50408845 -0.343348359 -0.000808551597)
(1.53107755 -0.422647219 -0.00202233769)
(1.58495566 -0.515076141 -0.00343729958)
(1.67890682 -0.616213881 -0.00502512289)
(1.82905062 -0.713334305 -0.00673908801)
(2.05133209 -0.780150221 -0.00826778716)
(2.35487037 -0.75837157 -0.0100780675)
(4.39442082 -0.000141371063 0.341552476)
(3.85575428 -0.00041817408 0.52746943)
(3.26887765 -0.000877105599 0.417939815)
(2.6888294 -0.00168334901 0.263717998)
(2.29382602 -0.00295920753 0.1477048)
(2.0542078 -0.00481043925 0.0754932073)
(1.90024327 -0.00732040494 0.03642051)
(1.79851009 -0.0105705794 0.0175986086)
(1.73099976 -0.0146683739 0.00929453805)
(1.6838604 -0.0197563473 0.00596331732)
(1.64807668 -0.0260189513 0.00477625347)
(1.61871941 -0.0336963683 0.00436165672)
(1.59309036 -0.0431041098 0.0041315451)
(1.56960604 -0.0546595958 0.00388163823)
(1.54731058 -0.0689193053 0.0035614619)
(1.52563529 -0.0866300935 0.00316794155)
(1.50429424 -0.1087989 0.00270247363)
(1.48329875 -0.13678597 0.00215288899)
(1.46308772 -0.172425865 0.0014847861)
(1.44480187 -0.218174604 0.000636139589)
(1.43077538 -0.277261707 -0.000485744133)
(1.42537075 -0.353761651 -0.00199620377)
(1.43632977 -0.452477455 -0.00401402709)
(1.47685921 -0.578121946 -0.00666092829)
(1.56866266 -0.73273118 -0.0102130874)
(1.74323547 -0.908876442 -0.0150274963)
(2.04823217 -1.07324866 -0.0218709996)