/*--------------------------------*- C++ -*----------------------------------*\
| =========                 |                                                 |
| \\      /  F ield         | foam-extend: Open Source CFD                    |
|  \\    /   O peration     | Version:     4.1                                |
|   \\  /    A nd           | Web:         http://www.foam-extend.org         |
|    \\/     M anipulation  |                                                 |
\*---------------------------------------------------------------------------*/
FoamFile
{
    version     2.0;
    format      ascii;
    class       volVectorField;
    location    "0.15";
    object      U_0;
}
// * * * * * * * * * * * * * * * * * * * * * * * * * * * * * * * * * * * * * //

dimensions      [0 1 -1 0 0 0 0];

internalField   nonuniform List<vector> 
35840
(
(3.94086076 0.268528243 0.261844196)
(3.2079556 0.371830825 0.357379555)
(2.43830091 0.266505662 0.249860651)
(1.72035582 0.156943202 0.14197887)
(1.29368071 0.0888145541 0.0772239217)
(1.05219889 0.0517217477 0.0439402376)
(0.893446856 0.031201102 0.0270984965)
(0.785243352 0.0189883165 0.0180832694)
(0.711729452 0.0115151667 0.0131457968)
(0.660091837 0.00693815343 0.010422615)
(0.622125468 0.00408186706 0.00881345362)
(0.593164717 0.0022481057 0.00773417773)
(0.5704237 0.00104674054 0.00691426628)
(0.552142947 0.000250209183 0.00623261567)
(0.537184693 -0.000280768723 0.00563480571)
(0.524789134 -0.000632365537 0.00509676495)
(0.514424186 -0.000858326051 0.00460705833)
(0.505696831 -0.000993710281 0.00415821423)
(0.498312849 -0.00106194402 0.00374426972)
(0.492038882 -0.00107836715 0.00336034508)
(0.486685553 -0.00105395251 0.00300275108)
(0.482094762 -0.000997346075 0.00266946849)
(0.478130307 -0.000915646716 0.00236025037)
(0.474671012 -0.000814679277 0.00207628333)
(0.471605774 -0.000699199102 0.00181961481)
(0.468830576 -0.000573051265 0.00159247083)
(0.466247311 -0.000439334697 0.00139660566)
(0.463764206 -0.000300581111 0.00123280402)
(4.52125 0.409952199 0.331399916)
(4.20224803 0.638134273 0.509000167)
(3.63676804 0.543492204 0.40727478)
(2.94290294 0.391284963 0.261505877)
(2.41566433 0.267495962 0.15221976)
(2.06114764 0.181535561 0.0859722211)
(1.80862675 0.124025288 0.0502578323)
(1.62437509 0.0850564338 0.0317494197)
(1.49032447 0.0584484566 0.0220779343)
(1.39091392 0.0403057759 0.0169207274)
(1.31490534 0.0278543475 0.0140025726)
(1.25527183 0.0191839529 0.0121451837)
(1.2075124 0.0130476313 0.010801252)
(1.16859315 0.00863410118 0.00973227237)
(1.1364322 0.00541127996 0.00883027402)
(1.10957426 0.00303079221 0.00804264126)
(1.08696905 0.00126469006 0.00734054484)
(1.0678353 -3.76081174e-05 0.00670476158)
(1.0515662 -0.000976450862 0.00611973695)
(1.03768093 -0.00161964004 0.00557209213)
(1.02579047 -0.00201517687 0.00505151359)
(1.01556752 -0.00219945178 0.00455193942)
(1.00672659 -0.00220283255 0.00407186407)
(0.999011689 -0.0020527845 0.00361378672)
(0.992187747 -0.0017753332 0.00318313577)
(0.986036101 -0.00139548562 0.0027868005)
(0.980353387 -0.000937064481 0.00243154217)
(0.974953109 -0.000422290617 0.00212256798)
(4.44213385 0.221359517 0.337952015)
(4.08278568 0.436511415 0.518819259)
(3.65714125 0.463108636 0.418089546)
(3.13713108 0.408843821 0.275889589)
(2.71979726 0.331873924 0.166458943)
(2.421842 0.257578191 0.0961064271)
(2.1981329 0.195641255 0.0564772657)
(2.02640102 0.147009352 0.0358966235)
(1.89492008 0.10974347 0.0253580008)
(1.79253413 0.0815886209 0.0198200401)
(1.71069225 0.0604723921 0.0166883447)
(1.64396758 0.0446441938 0.0146495161)
(1.58881113 0.0327264455 0.0131068626)
(1.54271346 0.023680106 0.0118229221)
(1.50385053 0.0167441455 0.0107064073)
(1.47087289 0.0113756973 0.00971874201)
(1.4427538 0.00719577224 0.00883904211)
(1.41869099 0.00394458888 0.00805054154)
(1.3980431 0.00144674763 0.00733618397)
(1.38028837 -0.000415990505 0.00667890132)
(1.36498686 -0.00172481659 0.00606338241)
(1.35176348 -0.00253987744 0.00547805074)
(1.34028551 -0.00291187424 0.00491648068)
(1.33024944 -0.00289026412 0.00437763061)
(1.32137224 -0.00252756817 0.00386514712)
(1.31338713 -0.00188045226 0.00338593487)
(1.30604331 -0.00100854398 0.00294827597)
(1.2991085 2.79839048e-05 0.00255982825)
(4.41370747 0.123367487 0.337929288)
(3.97527253 0.285989615 0.516843652)
(3.52614439 0.346932535 0.410945348)
(3.0482693 0.341748969 0.267056614)
(2.69650976 0.304708865 0.158688972)
(2.46050496 0.256394502 0.0893128342)
(2.2881205 0.208498462 0.0503500299)
(2.1560387 0.166203148 0.030649424)
(2.05361047 0.130788161 0.0211773637)
(1.97176946 0.101933862 0.0166834413)
(1.90402928 0.0787935813 0.0144662635)
(1.84669329 0.060392499 0.0131691921)
(1.79759616 0.0458027626 0.0121837516)
(1.75527693 0.0342201812 0.0112909935)
(1.71866602 0.0249886505 0.0104346155)
(1.68693761 0.017597391 0.0096119936)
(1.65941975 0.0116642263 0.00883260159)
(1.63554667 0.00691382547 0.00810320447)
(1.61483448 0.0031553937 0.00742389463)
(1.59686504 0.000261623147 0.00678914925)
(1.58127163 -0.00185157285 0.00619060648)
(1.56772646 -0.00324332458 0.00562022458)
(1.55592911 -0.00396299485 0.00507212005)
(1.54559677 -0.00406256605 0.00454395414)
(1.5364577 -0.00360449124 0.00403734888)
(1.52824825 -0.00266467792 0.00355736722)
(1.52071351 -0.00133129564 0.00311129376)
(1.51361143 0.000299335998 0.00270702298)
(4.40562831 0.0838849855 0.338530444)
(3.92709336 0.205867194 0.518667838)
(3.43458174 0.264628497 0.409526432)
(2.94273669 0.274628944 0.261034536)
(2.60542854 0.257651595 0.150312034)
(2.3968786 0.227941902 0.0806006118)
(2.25546432 0.194174406 0.0421477486)
(2.15330105 0.161428654 0.0232697691)
(2.07741624 0.131985637 0.0147401886)
(2.01796555 0.106496989 0.0111865243)
(1.96854685 0.0848939917 0.00984497085)
(1.92590909 0.0668184884 0.00933188431)
(1.88846487 0.0518089919 0.00902263101)
(1.85534214 0.0393936725 0.00869338191)
(1.82600084 0.0291396883 0.00829490918)
(1.80005619 0.0206770139 0.00783841918)
(1.77718622 0.0137067775 0.00734942041)
(1.75709449 0.00800054683 0.00685067223)
(1.73950096 0.00339408755 0.00635704026)
(1.72413999 -0.00022273307 0.00587561404)
(1.71076166 -0.00291979367 0.00540828987)
(1.69912621 -0.00474177996 0.00495446995)
(1.68900145 -0.00572392881 0.00451271129)
(1.68015768 -0.00590647529 0.00408239861)
(1.67236412 -0.00534551176 0.00366477707)
(1.66538758 -0.0041189112 0.00326325653)
(1.6589939 -0.00232702901 0.00288310201)
(1.65295286 -8.87977219e-05 0.00253067885)
(4.40178176 0.0613552537 0.339164909)
(3.90241685 0.153218049 0.520514093)
(3.38074102 0.204401013 0.410099364)
(2.8692122 0.221067095 0.258748595)
(2.5275019 0.215728625 0.145980104)
(2.32476685 0.198055741 0.0755299923)
(2.19488551 0.174598825 0.0370220894)
(2.10723028 0.14973915 0.0183393054)
(2.04672559 0.125913556 0.0101151201)
(2.00217212 0.104189707 0.0069109303)
(1.96648276 0.0849141665 0.00592728379)
(1.93611674 0.0680932554 0.00577037711)
(1.90942386 0.0535731556 0.00580938152)
(1.88560764 0.0411317162 0.0058113364)
(1.86427772 0.0305297919 0.00571909521)
(1.8452264 0.0215403855 0.0055395199)
(1.82830729 0.0139651183 0.00529706758)
(1.81338296 0.00764311637 0.00501605771)
(1.80030974 0.002454445 0.00471485293)
(1.78893483 -0.0016817801 0.00440518088)
(1.77910036 -0.00481401585 0.00409410747)
(1.7706404 -0.00696831213 0.0037855115)
(1.76338226 -0.00816209208 0.00348120416)
(1.75714451 -0.00841833627 0.00318219242)
(1.7517356 -0.00777796003 0.00288961195)
(1.74695388 -0.00630846695 0.00260529959)
(1.74258973 -0.00410758246 0.0023320411)
(1.73843034 -0.00130152232 0.00207350394)
(4.3995682 0.0466843202 0.339653857)
(3.88830244 0.117714122 0.521954477)
(3.34831345 0.161226455 0.411270203)
(2.82102591 0.180122606 0.258566862)
(2.47120462 0.18138546 0.14456423)
(2.26666024 0.171490014 0.0735015275)
(2.13921893 0.155378016 0.0347879448)
(2.05689799 0.136616547 0.016049351)
(2.00341582 0.117446646 0.00782449585)
(1.96664053 0.0990750758 0.00464136159)
(1.9389008 0.082077996 0.00368646045)
(1.91630133 0.0666867945 0.00356964113)
(1.89697715 0.0529482221 0.00366702877)
(1.88001788 0.0408131003 0.00374636671)
(1.86499288 0.030186779 0.00374653371)
(1.85170264 0.0209586501 0.00366925532)
(1.84003701 0.0130205037 0.0035343191)
(1.82990801 0.00627865774 0.00336247888)
(1.8212241 0.000661644134 0.00316987781)
(1.81388274 -0.00387714121 0.00296759198)
(1.80776796 -0.00736061067 0.00276311899)
(1.80274929 -0.009793937 0.00256108248)
(1.79868224 -0.0111753636 0.00236402665)
(1.79540765 -0.0115087672 0.00217318091)
(1.79275168 -0.010816236 0.00198901839)
(1.79052707 -0.00914857155 0.00181173051)
(1.78853603 -0.00659178289 0.00164163523)
(1.78657544 -0.00326838095 0.00147947918)
(4.39821719 0.0366435656 0.34004356)
(3.87961417 0.0929690143 0.523110844)
(3.32761753 0.129541249 0.412497242)
(2.78860047 0.148148956 0.259134618)
(2.43112269 0.152891937 0.144409735)
(2.22287329 0.148046565 0.0729521206)
(2.09461154 0.137219168 0.034104326)
(2.0135912 0.123184272 0.0153197659)
(1.96283776 0.107847995 0.00705894968)
(1.92964807 0.0923898363 0.00382918622)
(1.90596993 0.0774894841 0.00281312698)
(1.8876617 0.0635150422 0.0026285761)
(1.87269105 0.0506490252 0.00266372264)
(1.86003538 0.0389665056 0.00269433914)
(1.84919475 0.0284817224 0.00266220389)
(1.83993281 0.0191764404 0.00256889733)
(1.83212527 0.0110186159 0.00243262902)
(1.82568432 0.0039756984 0.00227203821)
(1.8205256 -0.0019761283 0.00210121487)
(1.81655682 -0.0068465867 0.00192985987)
(1.81366865 -0.0106292472 0.00176448858)
(1.81173465 -0.0133051789 0.00160900651)
(1.81060972 -0.0148508754 0.0014654705)
(1.81013017 -0.0152491162 0.00133454001)
(1.81011498 -0.0145013025 0.0012157751)
(1.81036862 -0.0126391424 0.00110794562)
(1.81068551 -0.00973349526 0.00100938658)
(1.81085654 -0.00589858048 0.000918439717)
(4.39732332 0.0293689967 0.340350399)
(3.87389163 0.0747884995 0.524007246)
(3.31373311 0.105394428 0.413538153)
(2.76609468 0.122588657 0.259834961)
(2.4021938 0.128945142 0.144690496)
(2.19003356 0.127275266 0.0729992756)
(2.05985954 0.120152796 0.0340853998)
(1.97848088 0.109684506 0.0152908929)
(1.92848773 0.0974240082 0.00701744281)
(1.89679723 0.0844330474 0.00375677655)
(1.87509205 0.0714020418 0.00268890037)
(1.85905667 0.0587638443 0.00243676921)
(1.84654153 0.0467835741 0.00239802939)
(1.83644434 0.0356211059 0.00235666083)
(1.82821295 0.0253706406 0.00225939392)
(1.82157921 0.0160860361 0.00211025247)
(1.81640169 0.00779850285 0.0019283824)
(1.81258443 0.000529920663 0.00173244451)
(1.81004012 -0.00569758099 0.00153624604)
(1.80867228 -0.0108544971 0.0013491875)
(1.80836594 -0.0149009082 0.00117722409)
(1.80898375 -0.0177886617 0.00102379153)
(1.81036401 -0.0194675183 0.000890547147)
(1.8123212 -0.0198951222 0.000777670866)
(1.81464844 -0.0190495585 0.00068408494)
(1.81712256 -0.0169422091 0.000607670537)
(1.81951098 -0.0136285997 0.000545516701)
(1.82158087 -0.00921523217 0.000494384652)
(4.39669865 0.0238547922 0.340587957)
(3.86993213 0.0608928115 0.524693993)
(3.30404485 0.0864788705 0.414373093)
(2.75002076 0.101818862 0.260487151)
(2.38090524 0.108642839 0.145090633)
(2.16512769 0.108825363 0.0732540004)
(2.0327357 0.104189989 0.0343016136)
(1.9502999 0.0963145551 0.0155081915)
(1.90013598 0.0864321232 0.00723494127)
(1.86890174 0.075451062 0.00396125157)
(1.8480858 0.0640159345 0.00286404848)
(1.83323873 0.052571565 0.00256833544)
(1.82211983 0.0414226359 0.00247720498)
(1.81356603 0.0307802106 0.00238012306)
(1.80698649 0.0207931075 0.00222766235)
(1.80209059 0.01156909 0.0020261965)
(1.7987258 0.00319065187 0.00179626652)
(1.79679168 -0.00427266841 0.00155734245)
(1.79619923 -0.0107544388 0.00132395541)
(1.7968486 -0.016183923 0.00110586642)
(1.79861755 -0.0204830468 0.000909120559)
(1.80135448 -0.0235677598 0.000737239966)
(1.80487541 -0.025353944 0.000591961006)
(1.80896443 -0.0257676607 0.00047348924)
(1.8133774 -0.0247587163 0.000380466659)
(1.81784871 -0.0223154523 0.000310236671)
(1.82210164 -0.0184782748 0.000259340894)
(1.8258616 -0.013349313 0.000223882048)
(4.39624575 0.0195311215 0.34077123)
(3.86708593 0.0499372679 0.525221933)
(3.29704972 0.0712973042 0.415032675)
(2.7382208 0.0846659971 0.261042692)
(2.36491079 0.091278127 0.145486014)
(2.14595149 0.0924138001 0.0735530787)
(2.01135055 0.0893655288 0.034573489)
(1.92756966 0.0833044128 0.0157808246)
(1.87676205 0.0751920508 0.00750941865)
(1.84541498 0.0657810351 0.00422968211)
(1.8248791 0.0556428708 0.00311598494)
(1.81060253 0.0452012208 0.00279406327)
(1.80027133 0.0347693803 0.00266991889)
(1.79267281 0.0245832951 0.00253615481)
(1.78718492 0.014825348 0.00234562878)
(1.78350004 0.005641407 0.00210615047)
(1.7814586 -0.00284575986 0.00183915662)
(1.78095985 -0.0105251298 0.00156494989)
(1.78191635 -0.0172876948 0.00129879726)
(1.78422877 -0.0230196485 0.00105082108)
(1.78777009 -0.0275994824 0.000827461447)
(1.79237581 -0.0308994519 0.000632669747)
(1.79783904 -0.0327923001 0.00046842152)
(1.80390942 -0.0331630706 0.000335017021)
(1.81029708 -0.03192505 0.000231292883)
(1.81668149 -0.0290380337 0.000154783627)
(1.82272546 -0.0245259397 0.000102002968)
(1.82809371 -0.0184901795 6.88023166e-05)
(4.39590679 0.0160492482 0.340913041)
(3.864971 0.0410780853 0.525630681)
(3.29184057 0.0588558879 0.415552201)
(2.72932739 0.0702958987 0.261499254)
(2.35263568 0.0763163931 0.145835906)
(2.13093398 0.0778120881 0.0738369532)
(1.99425917 0.0757029716 0.0348366467)
(1.90903945 0.0708537988 0.0160421111)
(1.85734088 0.0640054413 0.0077701343)
(1.82554494 0.0557678076 0.00448517805)
(1.80490979 0.0466302161 0.00335991808)
(1.79080962 0.0369766757 0.00302047627)
(1.78087477 0.027108545 0.0028745177)
(1.77385372 0.0172673538 0.00271640008)
(1.76910019 0.00765248029 0.00250018535)
(1.76629422 -0.00156543499 0.00223433435)
(1.7652733 -0.0102328971 0.00194083146)
(1.7659402 -0.0182028626 0.0016405696)
(1.76821377 -0.0253255145 0.00134905601)
(1.77199956 -0.0314418717 0.00107669171)
(1.77717025 -0.0363809869 0.000830227519)
(1.78355209 -0.0399621628 0.000613922498)
(1.79091629 -0.0420032072 0.000430116588)
(1.79897569 -0.0423350945 0.0002795583)
(1.80738751 -0.0408222589 0.000161511781)
(1.81576323 -0.0373863688 7.38970587e-05)
(1.82368632 -0.0320300703 1.35135841e-05)
(1.83073763 -0.0248560437 -2.36640079e-05)
(4.39564573 0.0131864569 0.34102364)
(3.86335201 0.0337710166 0.525950639)
(3.28784904 0.0484899188 0.415963932)
(2.72245084 0.0581172747 0.261870869)
(2.34300563 0.0633497499 0.146133503)
(2.11895115 0.0648232606 0.0740879695)
(1.98037768 0.0631959745 0.0350715198)
(1.89371979 0.0591043574 0.0162732383)
(1.84100393 0.0531134522 0.00799835757)
(1.80855068 0.0457086811 0.00470757538)
(1.78756041 0.0372976851 0.00357254502)
(1.77335814 0.0282158135 0.00321970108)
(1.76353545 0.0187395394 0.00305777165)
(1.75681374 0.00910224574 0.00288211825)
(1.75253074 -0.000492683245 0.00264735369)
(1.75036051 -0.00986089241 0.00236232339)
(1.7501437 -0.0188263999 0.00204938915)
(1.7517926 -0.0272112916 0.00172950693)
(1.75523859 -0.0348266954 0.00141815641)
(1.76039913 -0.041465996 0.00112583875)
(1.76715372 -0.0469019836 0.000859493709)
(1.77532542 -0.0508898407 0.000623657332)
(1.78466717 -0.0531775345 0.000421056908)
(1.79485395 -0.0535244738 0.000252923158)
(1.80548242 -0.051727988 0.000119085441)
(1.81608031 -0.0476554542 1.80843057e-05)
(1.82612765 -0.0412777695 -5.26751296e-05)
(1.83509051 -0.0326977584 -9.67470018e-05)
(4.39543932 0.010795707 0.341111013)
(3.86207806 0.0276539447 0.526204807)
(3.28470644 0.0397441771 0.416294142)
(2.71699772 0.0477046365 0.262174244)
(2.33527733 0.052064316 0.14638345)
(2.1091948 0.0532777718 0.0743041277)
(1.96889704 0.051816767 0.0352751473)
(1.88084331 0.048147663 0.0164725052)
(1.82704881 0.0426964855 0.00819355976)
(1.7938029 0.03584251 0.00489666953)
(1.77227326 0.0279166755 0.00375291316)
(1.75775543 0.0192022334 0.00338901015)
(1.74781742 0.00994282093 0.00321440678)
(1.74116498 0.000353619625 0.00302500325)
(1.73712897 -0.00936842474 0.00277579431)
(1.73538615 -0.0190346447 0.00247597287)
(1.73578846 -0.0284543175 0.00214785019)
(1.73826617 -0.0374241447 0.00181210839)
(1.74277294 -0.0457181795 0.0014841012)
(1.74924905 -0.0530798088 0.00117430137)
(1.75759222 -0.0592180782 0.000889733421)
(1.76763272 -0.0638108665 0.000635137923)
(1.77911267 -0.0665173099 0.000413586169)
(1.79167069 -0.0670012756 0.000226820899)
(1.80483531 -0.0649662106 7.53787601e-05)
(1.81803125 -0.0601994566 -4.13257276e-05)
(1.83060302 -0.0526208606 -0.000124926068)
(1.84185897 -0.0423267489 -0.000178086868)
(4.39527203 0.00877701298 0.341181247)
(3.86104914 0.0224790967 0.526410335)
(3.28216657 0.0323004388 0.416563141)
(2.71256388 0.0387491258 0.262424413)
(2.32892991 0.0422198329 0.146593585)
(2.10108049 0.0430341519 0.0744890975)
(1.95921351 0.0415282856 0.0354504867)
(1.86981931 0.0380407895 0.016643693)
(1.81491746 0.0328875657 0.00836045867)
(1.78078476 0.0263580269 0.0050577029)
(1.75857334 0.0187128124 0.00390621303)
(1.74356404 0.010182484 0.00353294245)
(1.73331344 0.000972616504 0.00334778514)
(1.72652185 -0.00872772562 0.00314710241)
(1.72252304 -0.0187368126 0.00288634883)
(1.72100588 -0.0288706082 0.00257465915)
(1.72184324 -0.038932019 0.00223390352)
(1.72499491 -0.0486988097 0.00188444858)
(1.73045052 -0.0579111748 0.00154144129)
(1.73818899 -0.066261106 0.00121522384)
(1.74814349 -0.0733863172 0.000912764425)
(1.7601687 -0.0788721059 0.000638879554)
(1.77400988 -0.082264814 0.000396926499)
(1.78927597 -0.0831002546 0.000189179066)
(1.80542176 -0.0809490847 1.70222292e-05)
(1.82174612 -0.0754782688 -0.000118936228)
(1.83741527 -0.0665229476 -0.0002188529)
(1.85151873 -0.0541564676 -0.000283844965)
(4.39513324 0.00706070743 0.341238921)
(3.86019726 0.0180730437 0.52657992)
(3.28006139 0.0259324382 0.416786283)
(2.7088693 0.0310248089 0.262633688)
(2.32359436 0.0336331942 0.146771768)
(2.0941834 0.0339775415 0.0746480175)
(1.95087662 0.0322928595 0.0356020429)
(1.86019548 0.0288202296 0.0167916732)
(1.80417134 0.0237874589 0.00850444072)
(1.76907932 0.0174075646 0.0051963794)
(1.74606691 0.00987710448 0.0040381333)
(1.73041023 0.00137427182 0.0036567906)
(1.7196634 -0.0079374945 0.00346273231)
(1.71253023 -0.0179018126 0.00325299413)
(1.70835624 -0.0283606417 0.00298305195)
(1.70685132 -0.039144383 0.00266152929)
(1.70792048 -0.0500594909 0.00230985424)
(1.71156704 -0.0608734431 0.0019480699)
(1.71783429 -0.0712984606 0.00159098913)
(1.72676141 -0.0809761873 0.00124863424)
(1.73834229 -0.0894666501 0.000927753427)
(1.75248274 -0.0962459746 0.000633082481)
(1.76895569 -0.100718314 0.000368128716)
(1.78735678 -0.10224794 0.000135662162)
(1.80706708 -0.100216621 -6.1935234e-05)
(1.82723477 -0.09410828 -0.000222429983)
(1.84679132 -0.0836160543 -0.000343708079)
(1.8645192 -0.0687559329 -0.000424255336)
(4.39501559 0.0055972233 0.34128743)
(3.85947542 0.014311969 0.526722895)
(3.27827429 0.0204767502 0.416975007)
(2.70571755 0.0243650329 0.262811678)
(2.31900741 0.0261652486 0.146924747)
(2.08819421 0.0260169657 0.074785816)
(1.94355132 0.024077537 0.035734204)
(1.8516281 0.020512216 0.0169209185)
(1.79447007 0.0154772324 0.00863016792)
(1.75835594 0.00911991231 0.00531741301)
(1.73443441 0.00157784757 0.00415318167)
(1.71798262 -0.0070230013 0.00376488004)
(1.70655874 -0.0165646073 0.0035637553)
(1.69887657 -0.0269297277 0.00334702712)
(1.69429971 -0.0379934706 0.0030696858)
(1.69256758 -0.0496122304 0.00273988283)
(1.69362878 -0.0616085831 0.00237868765)
(1.69754597 -0.0737522612 0.00200566141)
(1.70443762 -0.0857381296 0.00163508869)
(1.71443158 -0.0971634223 0.00127648696)
(1.72761756 -0.107507943 0.000936158046)
(1.74399289 -0.116122852 0.00061850847)
(1.76339912 -0.122235922 0.000326965302)
(1.7854518 -0.124983193 6.46745335e-05)
(1.80947139 -0.123477723 -0.000164852698)
(1.8344328 -0.116923767 -0.000357177475)
(1.85895997 -0.10477579 -0.000506689743)
(1.88140033 -0.0869248475 -0.000607431761)
(4.39491389 0.00435058813 0.341329265)
(3.85885079 0.0111057838 0.526846066)
(3.27672372 0.0158134606 0.417137718)
(2.70297019 0.0186456814 0.262965645)
(2.31498111 0.019710276 0.147057908)
(2.0828887 0.0190817726 0.0749066384)
(1.93699078 0.0168563967 0.035850669)
(1.84385991 0.0131391394 0.0170350518)
(1.78555479 0.0080270405 0.00874120917)
(1.74835881 0.00160989068 0.00542414894)
(1.72342357 -0.00602999818 0.00425458979)
(1.70603036 -0.014818543 0.00386085656)
(1.69374446 -0.0246864401 0.00365448771)
(1.6852922 -0.0355630251 0.00343231368)
(1.68005942 -0.0473675265 0.00314896612)
(1.67782158 -0.0599962575 0.00281227894)
(1.67858135 -0.0733045786 0.00244279551)
(1.68247707 -0.0870828333 0.00205943188)
(1.68972704 -0.101026683 0.00167576682)
(1.70058303 -0.11470354 0.00130057751)
(1.71527799 -0.127518705 0.000939419231)
(1.73395953 -0.138687841 0.000596021864)
(1.75660353 -0.147226412 0.000273383386)
(1.78290731 -0.151971598 -2.52106968e-05)
(1.81217007 -0.151656561 -0.000295020038)
(1.84318364 -0.145058041 -0.00052865733)
(1.87417572 -0.131228957 -0.000715193503)
(1.90287163 -0.109806021 -0.000841404551)
(4.39482453 0.00329411798 0.341366214)
(3.85830046 0.0083875297 0.526954317)
(3.27535279 0.0118528928 0.417280495)
(2.7005302 0.0137729596 0.263100937)
(2.31138265 0.0141873685 0.14717534)
(2.0781069 0.0131174869 0.0750137163)
(1.93101717 0.0106105109 0.0359542914)
(1.8367039 0.00672268064 0.0171367175)
(1.77723559 0.00150106595 0.00883990109)
(1.7388981 -0.00501608646 0.00551880057)
(1.71284561 -0.0127982199 0.00434518381)
(1.69436316 -0.0218228537 0.00394761004)
(1.68102169 -0.0320736125 0.00373724728)
(1.67155932 -0.043534728 0.00351078163)
(1.66538467 -0.0561819008 0.00322267475)
(1.66231228 -0.0699684286 0.00288030725)
(1.66240622 -0.0848043442 0.00250356428)
(1.66589525 -0.100526939 0.0021105639)
(1.67312348 -0.116861873 0.00171397192)
(1.68450799 -0.133375177 0.00132154186)
(1.70048592 -0.149418747 0.000937713621)
(1.72143782 -0.16407591 0.000565096911)
(1.74757559 -0.176120017 0.000205804483)
(1.77878704 -0.18400839 -0.000137044533)
(1.81443949 -0.185945082 -0.00045729469)
(1.8531679 -0.180056361 -0.000743502634)
(1.8927059 -0.164719553 -0.00097669285)
(1.92989179 -0.139067482 -0.00113162509)
(4.39474501 0.00240744629 0.341399526)
(3.85780873 0.00610600691 0.527051066)
(3.27412257 0.00852612727 0.417407616)
(2.69833105 0.00967416529 0.263221363)
(2.30812077 0.00953317906 0.147280004)
(2.07373865 0.00808133274 0.0751093964)
(1.92550815 0.00532628734 0.036047038)
(1.83003162 0.00128408515 0.0172274602)
(1.76938211 -0.00404133365 0.00892763146)
(1.72984501 -0.010657427 0.00560356746)
(1.70257394 -0.0185818563 0.00442731262)
(1.6828528 -0.0278442866 0.00402684742)
(1.66825328 -0.0384855992 0.00381333892)
(1.65752051 -0.050553239 0.00358355109)
(1.65008146 -0.0640930457 0.00329167481)
(1.645787 -0.0791354588 0.00294452406)
(1.64476412 -0.0956730079 0.00256120239)
(1.64734168 -0.113626151 0.00215885223)
(1.65401293 -0.132794647 0.00174896894)
(1.66540457 -0.152792258 0.0013379303)
(1.68223173 -0.172964523 0.00092861544)
(1.70521904 -0.192293632 0.000521997345)
(1.73496571 -0.209303432 0.000118806822)
(1.77173233 -0.221993076 -0.000278265853)
(1.81513477 -0.22785016 -0.000661140017)
(1.86376058 -0.224025108 -0.00101244031)
(1.91478151 -0.207764592 -0.00129887466)
(1.9637742 -0.177217222 -0.00147369649)
(4.39467364 0.00167438707 0.341430024)
(3.85736523 0.00422044421 0.527138601)
(3.27300755 0.00577796244 0.41752197)
(2.69632939 0.00629046058 0.263329508)
(2.30513635 0.00569567511 0.147373911)
(2.0697136 0.00393771045 0.0751951798)
(1.92038686 0.000992322094 0.0361298398)
(1.82376385 -0.00315845472 0.0173079884)
(1.76191787 -0.0085466511 0.0090061344)
(1.72112919 -0.0152194235 0.00568043336)
(1.69254366 -0.0232399637 0.00450224263)
(1.67143659 -0.0326901062 0.00409944685)
(1.65537204 -0.0436709795 0.00388344967)
(1.64309226 -0.0563008754 0.00365102182)
(1.63403158 -0.0707096879 0.00335598073)
(1.62806634 -0.0870273049 0.00300446065)
(1.62537836 -0.105362009 0.00261461409)
(1.62639581 -0.125764278 0.002202346)
(1.63177495 -0.148170421 0.00177760146)
(1.64239209 -0.172319686 0.00134489466)
(1.65932157 -0.197638709 0.000904988712)
(1.68377204 -0.223090407 0.000456701781)
(1.71694449 -0.246994388 -8.77272028e-07)
(1.75976403 -0.266847271 -0.000465172904)
(1.81243078 -0.279210058 -0.00092493202)
(1.87377803 -0.27980277 -0.00135395955)
(1.94046216 -0.26399471 -0.00169373872)
(2.00633955 -0.228045682 -0.00186138512)
(4.39460941 0.0010813374 0.341458198)
(3.85696365 0.00269650052 0.527218329)
(3.27199251 0.0035615095 0.417625363)
(2.69449983 0.00357106009 0.263426979)
(2.30239588 0.00262880208 0.147458236)
(2.06599359 0.000653396887 0.0752715824)
(1.91561365 -0.00240566119 0.0362028825)
(1.81786496 -0.00659325085 0.0173797443)
(1.75481674 -0.0119697423 0.00907716214)
(1.71273585 -0.0186171674 0.00575035924)
(1.68275195 -0.0266406541 0.00457057128)
(1.66012221 -0.0361719644 0.00416582988)
(1.64239087 -0.0473732703 0.00394772849)
(1.6282818 -0.0604390523 0.00371294877)
(1.61721785 -0.075595306 0.0034148237)
(1.60907921 -0.0930932899 0.00305862689)
(1.60408014 -0.113193199 0.00266125349)
(1.60272944 -0.13613148 0.00223689283)
(1.60584043 -0.162062996 0.00179326366)
(1.6145608 -0.190965816 0.0013321626)
(1.63039752 -0.222492951 0.000851320173)
(1.65520261 -0.255754304 0.000346810425)
(1.69106442 -0.289017718 -0.000183345743)
(1.74001716 -0.319339421 -0.00073344753)
(1.803441 -0.342189566 -0.00128082516)
(1.88107856 -0.351274107 -0.00178028432)
(1.96942733 -0.338847174 -0.00212898641)
(2.06024576 -0.2975088 -0.00222208603)
(4.39455178 0.000615983904 0.341484292)
(3.85660087 0.00150316811 0.527290997)
(3.2710703 0.00183398642 0.417718763)
(2.69283123 0.00146860782 0.263514559)
(2.29988622 0.000287497731 0.147533233)
(2.06256566 -0.00180832279 0.0753385077)
(1.9111808 -0.00488925219 0.0362674028)
(1.81233899 -0.00901861207 0.0174443653)
(1.7480979 -0.014279406 0.00914145751)
(1.70470278 -0.0207828084 0.00581374259)
(1.67325844 -0.028669619 0.00463255284)
(1.6489924 -0.0381164612 0.00422602784)
(1.62941336 -0.0493436363 0.00400587716)
(1.61320594 -0.0626224959 0.00376858404)
(1.59975423 -0.0782819435 0.00346680801)
(1.5889078 -0.0967116303 0.00310462329)
(1.58087185 -0.118357167 0.00269709533)
(1.5761905 -0.143700093 0.0022557919)
(1.57579304 -0.173210932 0.00178486371)
(1.58107931 -0.207256644 0.0012815578)
(1.5940242 -0.245934135 0.000738393825)
(1.61726766 -0.288790558 0.000146793648)
(1.65412067 -0.334383376 -0.000496351653)
(1.70835283 -0.379639089 -0.00117566087)
(1.7835618 -0.419055978 -0.00183597054)
(1.88179337 -0.443814887 -0.00237192709)
(2.00063667 -0.441308283 -0.00254537651)
(2.13013733 -0.39686516 -0.00228740327)
(4.39450069 0.000266095769 0.341508481)
(3.85627648 0.000610248376 0.527356948)
(3.27024022 0.000553739549 0.417802493)
(2.69132343 -6.52717667e-05 0.263592168)
(2.29760917 -0.00137746988 0.147598786)
(2.05943792 -0.00349188015 0.075397011)
(1.90710895 -0.00649044307 0.0363250051)
(1.8072233 -0.010448671 0.0175024028)
(1.74182015 -0.0154660925 0.00919925492)
(1.6971166 -0.021674689 0.00587069319)
(1.66418384 -0.0292421039 0.00468812665)
(1.63820708 -0.0383809931 0.00427975576)
(1.61664176 -0.0493613686 0.00405731027)
(1.59810828 -0.0625246247 0.00381689587)
(1.58191711 -0.0782997054 0.00351017517)
(1.5678393 -0.0972200806 0.00313944499)
(1.55600737 -0.119938029 0.00271693864)
(1.54692014 -0.14722978 0.00224993211)
(1.54152912 -0.179979168 0.00173636884)
(1.54139414 -0.219116558 0.00116505649)
(1.5489037 -0.265471565 0.00051810574)
(1.56754169 -0.319470143 -0.000223719576)
(1.60213737 -0.380567474 -0.00106984746)
(1.65895728 -0.44631092 -0.00199700178)
(1.74536718 -0.510902514 -0.00292423061)
(1.86842105 -0.563057797 -0.00368279625)
(2.03055429 -0.583904931 -0.00376411666)
(2.22446681 -0.54491937 -0.00321909455)
(4.39445689 1.99043702e-05 0.341531359)
(3.85599329 -1.28740998e-05 0.527416711)
(3.26950646 -0.000323606578 0.417876339)
(2.6899835 -0.00108340893 0.263659917)
(2.29557895 -0.00242228499 0.147655757)
(2.05663639 -0.00445136303 0.0754485487)
(1.90344032 -0.00725666851 0.0363761077)
(1.80258121 -0.0109201565 0.0175539267)
(1.73607548 -0.0155496301 0.00925049933)
(1.69010679 -0.0212877945 0.00592103837)
(1.65570481 -0.0283175552 0.00473699635)
(1.62800067 -0.0368741813 0.00432657523)
(1.60437906 -0.04726199 0.0041013769)
(1.58336997 -0.0598753458 0.00385686684)
(1.56417092 -0.0752257782 0.00354323895)
(1.54641625 -0.0939759489 0.00316013937)
(1.53008097 -0.11697997 0.00271535931)
(1.51549866 -0.145327596 0.00220899231)
(1.50348111 -0.180384384 0.00162778889)
(1.49554672 -0.223807536 0.000944003445)
(1.49428417 -0.277491472 0.000117251711)
(1.50387835 -0.343345954 -0.000897251013)
(1.53079637 -0.422723242 -0.00212728404)
(1.58454945 -0.515268603 -0.00356185676)
(1.67833559 -0.616578846 -0.00517196758)
(1.82832361 -0.713940677 -0.00690304643)
(2.0505517 -0.781044175 -0.00841940776)
(2.35429349 -0.759434992 -0.0101228772)
(4.39442056 -0.0001340107 0.341552468)
(3.85575306 -0.000398599458 0.527469517)
(3.268875 -0.000847298813 0.417939991)
(2.68882486 -0.00164425082 0.263718171)
(2.29381922 -0.00291147169 0.147704932)
(2.05419848 -0.00475432576 0.0754932924)
(1.90023113 -0.00725595301 0.0364205491)
(1.79849479 -0.0104976284 0.0175986675)
(1.73098066 -0.0145864167 0.00929485922)
(1.68383594 -0.0196643343 0.00596440467)
(1.64804343 -0.0259152476 0.00477876705)
(1.61867158 -0.0335789738 0.00436606278)
(1.5930204 -0.0429712016 0.00413758539)
(1.56950666 -0.0545102669 0.00388784937)
(1.54717777 -0.0687542349 0.00356500682)
(1.52547098 -0.0864518465 0.00316492493)
(1.50410715 -0.108611666 0.00268870155)
(1.48310199 -0.13659481 0.00212478996)
(1.462893 -0.172235854 0.00144005127)
(1.44461113 -0.217990552 0.000573635826)
(1.43057187 -0.277089466 -0.000567071644)
(1.42511254 -0.353612393 -0.00209955367)
(1.43594878 -0.452376663 -0.00414821438)
(1.47627031 -0.578120955 -0.00684365104)
(1.56779115 -0.732926738 -0.0104736037)
(1.74207908 -0.909431203 -0.0154033098)
(2.04698359 -1.07436291 -0.0223706565)
(2.51943097 -1.09165933 -0.0246435954)