/*--------------------------------*- C++ -*----------------------------------*\
| =========                 |                                                 |
| \\      /  F ield         | foam-extend: Open Source CFD                    |
|  \\    /   O peration     | Version:     4.1                                |
|   \\  /    A nd           | Web:         http://www.foam-extend.org         |
|    \\/     M anipulation  |                                                 |
\*---------------------------------------------------------------------------*/
FoamFile
{
    version     2.0;
    format      ascii;
    class       volScalarField::DimensionedInternalField;
    location    "0.15";
    object      V0;
}
// * * * * * * * * * * * * * * * * * * * * * * * * * * * * * * * * * * * * * //

dimensions      [0 3 0 0 0 0 0];

value           nonuniform List<scalar> 
35840
(
1.00000004e-06
1.00000012e-06
1.0000002e-06
1.00000029e-06
1.0000004e-06
1.00000051e-06
1.00000064e-06
1.0000008e-06
1.00000098e-06
1.00000118e-06
1.00000142e-06
1.0000017e-06
1.00000201e-06
1.00000236e-06
1.00000276e-06
1.00000319e-06
1.00000366e-06
1.00000417e-06
1.00000471e-06
1.00000527e-06
1.00000585e-06
1.00000642e-06
1.00000698e-06
1.00000752e-06
1.00000801e-06
1.00000845e-06
1.00000882e-06
1.00000911e-06
1.00000004e-06
1.00000012e-06
1.00000021e-06
1.0000003e-06
1.0000004e-06
1.00000052e-06
1.00000066e-06
1.00000082e-06
1.000001e-06
1.00000121e-06
1.00000146e-06
1.00000175e-06
1.00000207e-06
1.00000244e-06
1.00000285e-06
1.0000033e-06
1.0000038e-06
1.00000433e-06
1.0000049e-06
1.00000549e-06
1.00000609e-06
1.0000067e-06
1.0000073e-06
1.00000786e-06
1.00000839e-06
1.00000886e-06
1.00000925e-06
1.00000956e-06
1.00000004e-06
1.00000013e-06
1.00000022e-06
1.00000032e-06
1.00000043e-06
1.00000055e-06
1.0000007e-06
1.00000087e-06
1.00000107e-06
1.0000013e-06
1.00000157e-06
1.00000188e-06
1.00000224e-06
1.00000265e-06
1.00000311e-06
1.00000361e-06
1.00000417e-06
1.00000477e-06
1.00000541e-06
1.00000609e-06
1.00000678e-06
1.00000748e-06
1.00000816e-06
1.00000882e-06
1.00000943e-06
1.00000997e-06
1.00001043e-06
1.00001079e-06
1.00000005e-06
1.00000014e-06
1.00000024e-06
1.00000035e-06
1.00000047e-06
1.00000061e-06
1.00000078e-06
1.00000097e-06
1.0000012e-06
1.00000146e-06
1.00000177e-06
1.00000214e-06
1.00000256e-06
1.00000303e-06
1.00000357e-06
1.00000418e-06
1.00000485e-06
1.00000557e-06
1.00000635e-06
1.00000717e-06
1.00000802e-06
1.00000888e-06
1.00000973e-06
1.00001054e-06
1.0000113e-06
1.00001198e-06
1.00001256e-06
1.00001301e-06
1.00000005e-06
1.00000016e-06
1.00000027e-06
1.0000004e-06
1.00000054e-06
1.0000007e-06
1.00000089e-06
1.00000111e-06
1.00000138e-06
1.0000017e-06
1.00000207e-06
1.00000251e-06
1.00000301e-06
1.0000036e-06
1.00000426e-06
1.00000501e-06
1.00000585e-06
1.00000676e-06
1.00000774e-06
1.00000879e-06
1.00000987e-06
1.00001098e-06
1.00001208e-06
1.00001314e-06
1.00001413e-06
1.00001502e-06
1.00001578e-06
1.00001637e-06
1.00000006e-06
1.00000019e-06
1.00000032e-06
1.00000046e-06
1.00000062e-06
1.00000081e-06
1.00000103e-06
1.0000013e-06
1.00000162e-06
1.00000201e-06
1.00000246e-06
1.000003e-06
1.00000363e-06
1.00000436e-06
1.0000052e-06
1.00000615e-06
1.00000721e-06
1.00000838e-06
1.00000966e-06
1.00001102e-06
1.00001244e-06
1.0000139e-06
1.00001536e-06
1.00001677e-06
1.0000181e-06
1.00001929e-06
1.00002031e-06
1.00002111e-06
1.00000007e-06
1.00000022e-06
1.00000037e-06
1.00000053e-06
1.00000072e-06
1.00000095e-06
1.00000122e-06
1.00000154e-06
1.00000193e-06
1.0000024e-06
1.00000297e-06
1.00000363e-06
1.00000442e-06
1.00000534e-06
1.00000641e-06
1.00000763e-06
1.000009e-06
1.00001052e-06
1.00001219e-06
1.00001398e-06
1.00001587e-06
1.00001781e-06
1.00001977e-06
1.00002167e-06
1.00002347e-06
1.00002509e-06
1.00002647e-06
1.00002756e-06
1.00000008e-06
1.00000025e-06
1.00000043e-06
1.00000062e-06
1.00000085e-06
1.00000112e-06
1.00000144e-06
1.00000183e-06
1.00000231e-06
1.00000289e-06
1.00000358e-06
1.00000442e-06
1.00000541e-06
1.00000658e-06
1.00000794e-06
1.0000095e-06
1.00001128e-06
1.00001327e-06
1.00001546e-06
1.00001783e-06
1.00002035e-06
1.00002295e-06
1.00002558e-06
1.00002817e-06
1.00003061e-06
1.00003282e-06
1.00003472e-06
1.00003622e-06
1.0000001e-06
1.00000029e-06
1.0000005e-06
1.00000073e-06
1.000001e-06
1.00000132e-06
1.0000017e-06
1.00000218e-06
1.00000276e-06
1.00000347e-06
1.00000433e-06
1.00000537e-06
1.00000662e-06
1.0000081e-06
1.00000983e-06
1.00001184e-06
1.00001415e-06
1.00001674e-06
1.00001962e-06
1.00002276e-06
1.00002611e-06
1.00002961e-06
1.00003316e-06
1.00003667e-06
1.00004e-06
1.00004303e-06
1.00004564e-06
1.00004771e-06
1.00000011e-06
1.00000034e-06
1.00000058e-06
1.00000085e-06
1.00000116e-06
1.00000154e-06
1.00000201e-06
1.00000258e-06
1.00000329e-06
1.00000416e-06
1.00000522e-06
1.00000651e-06
1.00000807e-06
1.00000994e-06
1.00001214e-06
1.00001472e-06
1.00001769e-06
1.00002107e-06
1.00002485e-06
1.000029e-06
1.00003346e-06
1.00003815e-06
1.00004295e-06
1.0000477e-06
1.00005225e-06
1.00005641e-06
1.00006e-06
1.00006285e-06
1.00000013e-06
1.00000039e-06
1.00000067e-06
1.00000098e-06
1.00000135e-06
1.0000018e-06
1.00000235e-06
1.00000304e-06
1.00000389e-06
1.00000495e-06
1.00000626e-06
1.00000785e-06
1.0000098e-06
1.00001214e-06
1.00001493e-06
1.00001821e-06
1.00002204e-06
1.00002642e-06
1.00003135e-06
1.00003682e-06
1.00004274e-06
1.00004902e-06
1.00005548e-06
1.00006193e-06
1.00006814e-06
1.00007384e-06
1.00007877e-06
1.00008271e-06
1.00000015e-06
1.00000045e-06
1.00000077e-06
1.00000113e-06
1.00000156e-06
1.00000209e-06
1.00000274e-06
1.00000356e-06
1.00000458e-06
1.00000586e-06
1.00000744e-06
1.0000094e-06
1.00001181e-06
1.00001472e-06
1.00001823e-06
1.00002239e-06
1.00002728e-06
1.00003293e-06
1.00003935e-06
1.00004652e-06
1.00005436e-06
1.00006273e-06
1.00007142e-06
1.00008015e-06
1.00008861e-06
1.00009642e-06
1.00010321e-06
1.00010864e-06
1.00000017e-06
1.00000051e-06
1.00000087e-06
1.00000128e-06
1.00000178e-06
1.00000239e-06
1.00000316e-06
1.00000412e-06
1.00000534e-06
1.00000687e-06
1.00000879e-06
1.00001117e-06
1.00001412e-06
1.00001772e-06
1.00002209e-06
1.00002733e-06
1.00003354e-06
1.00004077e-06
1.00004908e-06
1.00005843e-06
1.00006876e-06
1.00007988e-06
1.00009153e-06
1.00010333e-06
1.00011484e-06
1.00012553e-06
1.00013487e-06
1.00014236e-06
1.00000019e-06
1.00000057e-06
1.00000098e-06
1.00000145e-06
1.00000201e-06
1.00000272e-06
1.0000036e-06
1.00000473e-06
1.00000616e-06
1.00000798e-06
1.00001027e-06
1.00001315e-06
1.00001672e-06
1.00002114e-06
1.00002654e-06
1.00003308e-06
1.00004089e-06
1.00005009e-06
1.00006076e-06
1.00007289e-06
1.00008642e-06
1.00010113e-06
1.00011668e-06
1.00013258e-06
1.0001482e-06
1.00016282e-06
1.00017566e-06
1.000186e-06
1.00000021e-06
1.00000063e-06
1.00000109e-06
1.00000161e-06
1.00000225e-06
1.00000305e-06
1.00000407e-06
1.00000537e-06
1.00000704e-06
1.00000917e-06
1.00001187e-06
1.0000153e-06
1.00001961e-06
1.00002496e-06
1.00003157e-06
1.00003965e-06
1.0000494e-06
1.00006099e-06
1.00007458e-06
1.0000902e-06
1.00010781e-06
1.00012716e-06
1.00014783e-06
1.00016918e-06
1.00019034e-06
1.0002103e-06
1.00022794e-06
1.00024221e-06
1.00000023e-06
1.00000069e-06
1.0000012e-06
1.00000178e-06
1.00000249e-06
1.00000339e-06
1.00000454e-06
1.00000602e-06
1.00000794e-06
1.0000104e-06
1.00001356e-06
1.00001759e-06
1.0000227e-06
1.00002912e-06
1.00003713e-06
1.00004701e-06
1.00005904e-06
1.00007351e-06
1.00009065e-06
1.00011059e-06
1.00013333e-06
1.00015862e-06
1.00018595e-06
1.0002145e-06
1.0002431e-06
1.00027031e-06
1.00029454e-06
1.00031424e-06
1.00000025e-06
1.00000075e-06
1.0000013e-06
1.00000194e-06
1.00000272e-06
1.00000372e-06
1.000005e-06
1.00000667e-06
1.00000884e-06
1.00001165e-06
1.00001529e-06
1.00001996e-06
1.00002594e-06
1.00003355e-06
1.00004313e-06
1.00005506e-06
1.00006973e-06
1.00008757e-06
1.00010896e-06
1.00013416e-06
1.00016325e-06
1.00019605e-06
1.00023196e-06
1.00026994e-06
1.00030847e-06
1.00034553e-06
1.00037883e-06
1.00040607e-06
1.00000026e-06
1.0000008e-06
1.00000139e-06
1.00000208e-06
1.00000293e-06
1.00000402e-06
1.00000543e-06
1.00000728e-06
1.00000969e-06
1.00001286e-06
1.00001698e-06
1.00002233e-06
1.00002924e-06
1.0000381e-06
1.00004935e-06
1.00006352e-06
1.00008119e-06
1.00010294e-06
1.00012928e-06
1.00016074e-06
1.00019759e-06
1.00023972e-06
1.00028653e-06
1.00033681e-06
1.00038854e-06
1.00043898e-06
1.0004848e-06
1.00052257e-06
1.00000028e-06
1.00000084e-06
1.00000146e-06
1.00000219e-06
1.0000031e-06
1.00000427e-06
1.0000058e-06
1.00000781e-06
1.00001046e-06
1.00001396e-06
1.00001855e-06
1.00002457e-06
1.0000324e-06
1.00004253e-06
1.00005552e-06
1.00007209e-06
1.000093e-06
1.00011904e-06
1.00015107e-06
1.00018986e-06
1.00023594e-06
1.00028947e-06
1.00034995e-06
1.00041605e-06
1.00048529e-06
1.00055395e-06
1.00061723e-06
1.00066994e-06
1.00000028e-06
1.00000087e-06
1.00000151e-06
1.00000227e-06
1.00000323e-06
1.00000446e-06
1.00000608e-06
1.00000823e-06
1.00001109e-06
1.00001488e-06
1.0000199e-06
1.00002652e-06
1.00003523e-06
1.00004658e-06
1.00006133e-06
1.00008034e-06
1.00010459e-06
1.00013521e-06
1.00017347e-06
1.00022053e-06
1.00027734e-06
1.00034445e-06
1.00042173e-06
1.00050798e-06
1.00060037e-06
1.00069405e-06
1.00078214e-06
1.0008566e-06
1.00000029e-06
1.00000088e-06
1.00000154e-06
1.00000231e-06
1.00000329e-06
1.00000457e-06
1.00000626e-06
1.00000851e-06
1.00001152e-06
1.00001554e-06
1.0000209e-06
1.00002804e-06
1.0000375e-06
1.00004997e-06
1.00006634e-06
1.00008765e-06
1.00011521e-06
1.00015053e-06
1.00019524e-06
1.00025114e-06
1.00031998e-06
1.00040287e-06
1.00050033e-06
1.0006119e-06
1.00073488e-06
1.00086337e-06
1.00098771e-06
1.00109518e-06
1.00000029e-06
1.00000087e-06
1.00000152e-06
1.0000023e-06
1.00000329e-06
1.00000458e-06
1.00000629e-06
1.00000859e-06
1.00001168e-06
1.00001584e-06
1.00002144e-06
1.00002894e-06
1.00003896e-06
1.00005231e-06
1.00006999e-06
1.0000933e-06
1.00012382e-06
1.00016348e-06
1.00021447e-06
1.00027932e-06
1.00036064e-06
1.00046093e-06
1.0005823e-06
1.00072552e-06
1.00088903e-06
1.00106695e-06
1.00124656e-06
1.00140728e-06
1.00000028e-06
1.00000085e-06
1.00000148e-06
1.00000223e-06
1.0000032e-06
1.00000447e-06
1.00000616e-06
1.00000845e-06
1.00001154e-06
1.00001573e-06
1.00002139e-06
1.00002904e-06
1.00003935e-06
1.0000532e-06
1.00007173e-06
1.00009642e-06
1.00012916e-06
1.00017229e-06
1.00022867e-06
1.00030166e-06
1.00039515e-06
1.00051375e-06
1.00066226e-06
1.00084437e-06
1.0010618e-06
1.00131171e-06
1.00158006e-06
1.00183358e-06
1.00000026e-06
1.00000079e-06
1.00000139e-06
1.0000021e-06
1.00000302e-06
1.00000423e-06
1.00000585e-06
1.00000805e-06
1.00001105e-06
1.00001512e-06
1.00002066e-06
1.0000282e-06
1.00003843e-06
1.00005229e-06
1.000071e-06
1.00009621e-06
1.00013001e-06
1.00017517e-06
1.00023517e-06
1.00031445e-06
1.00041868e-06
1.00055498e-06
1.00073194e-06
1.00096005e-06
1.00124972e-06
1.00160751e-06
1.00202572e-06
1.00245402e-06
1.00000024e-06
1.00000072e-06
1.00000126e-06
1.00000191e-06
1.00000275e-06
1.00000386e-06
1.00000536e-06
1.0000074e-06
1.00001018e-06
1.00001399e-06
1.0000192e-06
1.00002632e-06
1.00003605e-06
1.00004932e-06
1.00006739e-06
1.00009196e-06
1.00012528e-06
1.00017038e-06
1.00023132e-06
1.00031357e-06
1.00042463e-06
1.00057493e-06
1.00077901e-06
1.00105804e-06
1.00144224e-06
1.00196495e-06
1.0026448e-06
1.00341837e-06
1.0000002e-06
1.00000062e-06
1.00000109e-06
1.00000166e-06
1.00000239e-06
1.00000337e-06
1.00000468e-06
1.00000648e-06
1.00000894e-06
1.00001233e-06
1.00001698e-06
1.00002336e-06
1.00003213e-06
1.00004417e-06
1.00006067e-06
1.00008327e-06
1.00011422e-06
1.00015661e-06
1.00021474e-06
1.00029479e-06
1.00040586e-06
1.000562e-06
1.0007858e-06
1.0011145e-06
1.00161082e-06
1.00237564e-06
1.00351003e-06
1.00494515e-06
1.00000017e-06
1.00000051e-06
1.00000089e-06
1.00000135e-06
1.00000195e-06
1.00000275e-06
1.00000384e-06
1.00000532e-06
1.00000736e-06
1.00001017e-06
1.00001404e-06
1.00001938e-06
1.00002674e-06
1.00003689e-06
1.00005087e-06
1.00007014e-06
1.00009671e-06
1.00013343e-06
1.00018439e-06
1.00025571e-06
1.00035708e-06
1.00050491e-06
1.00072911e-06
1.00108697e-06
1.0016887e-06
1.00273812e-06
1.0046021e-06
1.00702589e-06
1.00000012e-06
1.00000037e-06
1.00000066e-06
1.000001e-06
1.00000145e-06
1.00000204e-06
1.00000285e-06
1.00000396e-06
1.00000548e-06
1.00000759e-06
1.0000105e-06
1.00001452e-06
1.00002008e-06
1.00002776e-06
1.00003839e-06
1.00005308e-06
1.00007344e-06
1.00010172e-06
1.00014124e-06
1.00019708e-06
1.00027763e-06
1.00039799e-06
1.00058803e-06
1.000912e-06
1.00151214e-06
1.00267141e-06
1.00466634e-06
1.01045417e-06
1.00000012e-06
1.00000035e-06
1.00000059e-06
1.00000086e-06
1.00000115e-06
1.00000148e-06
1.00000187e-06
1.00000231e-06
1.00000283e-06
1.00000343e-06
1.00000413e-06
1.00000493e-06
1.00000583e-06
1.00000686e-06
1.000008e-06
1.00000926e-06
1.00001064e-06
1.00001211e-06
1.00001367e-06
1.0000153e-06
1.00001696e-06
1.00001863e-06
1.00002026e-06
1.00002182e-06
1.00002325e-06
1.00002453e-06
1.0000256e-06
1.00002643e-06
1.00000012e-06
1.00000036e-06
1.00000061e-06
1.00000087e-06
1.00000117e-06
1.00000151e-06
1.00000191e-06
1.00000237e-06
1.0000029e-06
1.00000352e-06
1.00000424e-06
1.00000507e-06
1.00000601e-06
1.00000707e-06
1.00000827e-06
1.00000958e-06
1.00001102e-06
1.00001257e-06
1.00001421e-06
1.00001593e-06
1.00001768e-06
1.00001944e-06
1.00002117e-06
1.00002282e-06
1.00002435e-06
1.0000257e-06
1.00002684e-06
1.00002774e-06
1.00000013e-06
1.00000038e-06
1.00000064e-06
1.00000093e-06
1.00000124e-06
1.00000161e-06
1.00000203e-06
1.00000252e-06
1.0000031e-06
1.00000378e-06
1.00000456e-06
1.00000547e-06
1.00000651e-06
1.00000769e-06
1.00000902e-06
1.00001049e-06
1.0000121e-06
1.00001385e-06
1.00001571e-06
1.00001766e-06
1.00001967e-06
1.00002169e-06
1.00002368e-06
1.00002559e-06
1.00002736e-06
1.00002893e-06
1.00003026e-06
1.0000313e-06
1.00000014e-06
1.00000042e-06
1.00000071e-06
1.00000102e-06
1.00000137e-06
1.00000178e-06
1.00000225e-06
1.00000281e-06
1.00000347e-06
1.00000424e-06
1.00000515e-06
1.0000062e-06
1.00000742e-06
1.0000088e-06
1.00001037e-06
1.00001213e-06
1.00001406e-06
1.00001617e-06
1.00001843e-06
1.00002081e-06
1.00002327e-06
1.00002576e-06
1.00002823e-06
1.0000306e-06
1.00003281e-06
1.00003478e-06
1.00003645e-06
1.00003775e-06
1.00000016e-06
1.00000047e-06
1.0000008e-06
1.00000115e-06
1.00000156e-06
1.00000203e-06
1.00000258e-06
1.00000323e-06
1.000004e-06
1.00000492e-06
1.00000601e-06
1.00000727e-06
1.00000875e-06
1.00001044e-06
1.00001237e-06
1.00001455e-06
1.00001696e-06
1.00001961e-06
1.00002247e-06
1.0000255e-06
1.00002865e-06
1.00003186e-06
1.00003505e-06
1.00003813e-06
1.00004101e-06
1.00004359e-06
1.00004579e-06
1.00004751e-06
1.00000018e-06
1.00000054e-06
1.00000092e-06
1.00000133e-06
1.0000018e-06
1.00000235e-06
1.000003e-06
1.00000378e-06
1.00000471e-06
1.00000583e-06
1.00000715e-06
1.00000871e-06
1.00001054e-06
1.00001265e-06
1.00001508e-06
1.00001784e-06
1.00002093e-06
1.00002433e-06
1.00002803e-06
1.00003197e-06
1.00003611e-06
1.00004034e-06
1.00004456e-06
1.00004867e-06
1.00005252e-06
1.00005598e-06
1.00005893e-06
1.00006125e-06
1.00000021e-06
1.00000062e-06
1.00000106e-06
1.00000155e-06
1.0000021e-06
1.00000276e-06
1.00000354e-06
1.00000448e-06
1.00000561e-06
1.00000697e-06
1.00000861e-06
1.00001055e-06
1.00001284e-06
1.00001551e-06
1.0000186e-06
1.00002213e-06
1.00002611e-06
1.00003054e-06
1.00003538e-06
1.00004058e-06
1.00004605e-06
1.00005169e-06
1.00005736e-06
1.00006289e-06
1.0000681e-06
1.00007281e-06
1.00007683e-06
1.00007999e-06
1.00000024e-06
1.00000073e-06
1.00000124e-06
1.00000181e-06
1.00000247e-06
1.00000325e-06
1.00000418e-06
1.00000532e-06
1.0000067e-06
1.00000838e-06
1.0000104e-06
1.00001283e-06
1.0000157e-06
1.00001909e-06
1.00002304e-06
1.00002758e-06
1.00003274e-06
1.00003851e-06
1.00004487e-06
1.00005175e-06
1.00005904e-06
1.00006661e-06
1.00007425e-06
1.00008174e-06
1.00008883e-06
1.00009526e-06
1.00010076e-06
1.00010511e-06
1.00000028e-06
1.00000085e-06
1.00000145e-06
1.00000211e-06
1.00000289e-06
1.00000382e-06
1.00000495e-06
1.00000632e-06
1.00000801e-06
1.00001007e-06
1.00001257e-06
1.0000156e-06
1.00001921e-06
1.0000235e-06
1.00002854e-06
1.00003437e-06
1.00004105e-06
1.00004859e-06
1.00005695e-06
1.00006605e-06
1.00007578e-06
1.00008593e-06
1.00009624e-06
1.00010641e-06
1.00011608e-06
1.00012488e-06
1.00013245e-06
1.00013845e-06
1.00000032e-06
1.00000098e-06
1.00000168e-06
1.00000246e-06
1.00000338e-06
1.00000448e-06
1.00000583e-06
1.00000749e-06
1.00000954e-06
1.00001206e-06
1.00001515e-06
1.0000189e-06
1.00002343e-06
1.00002885e-06
1.00003525e-06
1.00004273e-06
1.00005135e-06
1.00006116e-06
1.00007212e-06
1.00008416e-06
1.00009711e-06
1.00011071e-06
1.00012463e-06
1.00013844e-06
1.00015164e-06
1.00016371e-06
1.00017411e-06
1.00018238e-06
1.00000037e-06
1.00000113e-06
1.00000194e-06
1.00000285e-06
1.00000392e-06
1.00000523e-06
1.00000683e-06
1.00000882e-06
1.0000113e-06
1.00001437e-06
1.00001815e-06
1.00002279e-06
1.00002843e-06
1.00003522e-06
1.00004332e-06
1.00005286e-06
1.00006395e-06
1.00007666e-06
1.00009099e-06
1.00010685e-06
1.00012404e-06
1.00014225e-06
1.000161e-06
1.00017973e-06
1.00019773e-06
1.00021428e-06
1.0002286e-06
1.00024001e-06
1.00000043e-06
1.00000129e-06
1.00000222e-06
1.00000327e-06
1.00000452e-06
1.00000605e-06
1.00000795e-06
1.00001032e-06
1.00001329e-06
1.000017e-06
1.0000216e-06
1.00002729e-06
1.00003426e-06
1.00004273e-06
1.0000529e-06
1.00006499e-06
1.00007917e-06
1.00009556e-06
1.0001142e-06
1.00013501e-06
1.00015775e-06
1.00018204e-06
1.00020725e-06
1.0002326e-06
1.00025714e-06
1.0002798e-06
1.0002995e-06
1.00031525e-06
1.00000048e-06
1.00000147e-06
1.00000252e-06
1.00000373e-06
1.00000517e-06
1.00000694e-06
1.00000916e-06
1.00001197e-06
1.0000155e-06
1.00001994e-06
1.0000255e-06
1.00003242e-06
1.00004096e-06
1.00005143e-06
1.00006412e-06
1.00007933e-06
1.00009732e-06
1.00011832e-06
1.00014242e-06
1.00016958e-06
1.00019954e-06
1.00023181e-06
1.0002656e-06
1.00029984e-06
1.00033322e-06
1.00036423e-06
1.00039133e-06
1.00041306e-06
1.00000054e-06
1.00000165e-06
1.00000284e-06
1.0000042e-06
1.00000585e-06
1.00000788e-06
1.00001046e-06
1.00001373e-06
1.00001789e-06
1.00002316e-06
1.00002981e-06
1.00003815e-06
1.00004853e-06
1.00006135e-06
1.00007703e-06
1.000096e-06
1.00011867e-06
1.00014537e-06
1.00017631e-06
1.00021153e-06
1.00025078e-06
1.00029345e-06
1.00033857e-06
1.0003847e-06
1.00043001e-06
1.0004724e-06
1.00050963e-06
1.00053961e-06
1.0000006e-06
1.00000183e-06
1.00000316e-06
1.00000468e-06
1.00000654e-06
1.00000886e-06
1.00001181e-06
1.00001559e-06
1.00002042e-06
1.0000266e-06
1.00003446e-06
1.00004441e-06
1.0000569e-06
1.00007244e-06
1.00009162e-06
1.00011507e-06
1.00014335e-06
1.000177e-06
1.00021641e-06
1.00026175e-06
1.00031282e-06
1.00036896e-06
1.00042891e-06
1.00049082e-06
1.00055219e-06
1.00061003e-06
1.00066116e-06
1.0007025e-06
1.00000066e-06
1.00000201e-06
1.00000347e-06
1.00000517e-06
1.00000724e-06
1.00000984e-06
1.00001318e-06
1.00001748e-06
1.00002304e-06
1.00003018e-06
1.00003935e-06
1.00005106e-06
1.00006587e-06
1.00008452e-06
1.00010777e-06
1.00013643e-06
1.00017134e-06
1.00021332e-06
1.00026304e-06
1.0003209e-06
1.00038685e-06
1.00046019e-06
1.00053944e-06
1.00062217e-06
1.00070503e-06
1.00078384e-06
1.00085399e-06
1.00091099e-06
1.00000071e-06
1.00000218e-06
1.00000377e-06
1.00000562e-06
1.0000079e-06
1.00001079e-06
1.00001452e-06
1.00001936e-06
1.00002564e-06
1.0000338e-06
1.00004436e-06
1.00005793e-06
1.00007528e-06
1.00009735e-06
1.00012517e-06
1.00015979e-06
1.00020235e-06
1.00025411e-06
1.00031615e-06
1.00038924e-06
1.00047361e-06
1.00056867e-06
1.00067272e-06
1.00078273e-06
1.00089422e-06
1.00100139e-06
1.00109759e-06
1.00117622e-06
1.00000076e-06
1.00000232e-06
1.00000403e-06
1.00000603e-06
1.0000085e-06
1.00001166e-06
1.00001576e-06
1.00002112e-06
1.00002814e-06
1.00003731e-06
1.00004927e-06
1.0000648e-06
1.00008486e-06
1.00011057e-06
1.00014323e-06
1.00018433e-06
1.00023561e-06
1.00029869e-06
1.0003751e-06
1.00046631e-06
1.00057311e-06
1.00069514e-06
1.00083065e-06
1.00097603e-06
1.00112545e-06
1.00127092e-06
1.00140288e-06
1.0015115e-06
1.0000008e-06
1.00000244e-06
1.00000424e-06
1.00000636e-06
1.000009e-06
1.0000124e-06
1.00001683e-06
1.00002267e-06
1.00003037e-06
1.00004051e-06
1.00005384e-06
1.0000713e-06
1.00009403e-06
1.00012342e-06
1.00016113e-06
1.0002092e-06
1.00026985e-06
1.00034538e-06
1.00043825e-06
1.00055066e-06
1.00068413e-06
1.000839e-06
1.00101379e-06
1.00120448e-06
1.00140383e-06
1.00160101e-06
1.00178227e-06
1.00193285e-06
1.00000083e-06
1.00000252e-06
1.00000439e-06
1.0000066e-06
1.00000937e-06
1.00001295e-06
1.00001766e-06
1.0000239e-06
1.00003219e-06
1.00004318e-06
1.00005775e-06
1.00007698e-06
1.00010222e-06
1.00013518e-06
1.00017798e-06
1.00023313e-06
1.00030344e-06
1.00039223e-06
1.00050312e-06
1.00063942e-06
1.00080375e-06
1.00099761e-06
1.00122039e-06
1.00146831e-06
1.00173291e-06
1.00200001e-06
1.00224994e-06
1.00246017e-06
1.00000084e-06
1.00000256e-06
1.00000446e-06
1.00000671e-06
1.00000956e-06
1.00001326e-06
1.00001816e-06
1.00002469e-06
1.00003342e-06
1.00004509e-06
1.00006066e-06
1.00008137e-06
1.00010882e-06
1.00014502e-06
1.00019249e-06
1.00025431e-06
1.00033424e-06
1.0004366e-06
1.00056609e-06
1.00072783e-06
1.00092664e-06
1.00116547e-06
1.0014453e-06
1.00176414e-06
1.00211339e-06
1.00247538e-06
1.00282259e-06
1.00311995e-06
1.00000083e-06
1.00000254e-06
1.00000442e-06
1.00000668e-06
1.00000954e-06
1.00001328e-06
1.00001825e-06
1.00002493e-06
1.0000339e-06
1.00004598e-06
1.00006221e-06
1.00008398e-06
1.00011306e-06
1.00015178e-06
1.00020309e-06
1.00027069e-06
1.00035917e-06
1.00047404e-06
1.0006216e-06
1.00080894e-06
1.00104326e-06
1.00133113e-06
1.00167754e-06
1.00208314e-06
1.00254122e-06
1.00303286e-06
1.00352121e-06
1.00395105e-06
1.0000008e-06
1.00000245e-06
1.00000429e-06
1.00000648e-06
1.00000928e-06
1.00001296e-06
1.00001788e-06
1.00002451e-06
1.00003349e-06
1.00004564e-06
1.00006208e-06
1.00008428e-06
1.00011418e-06
1.00015435e-06
1.00020811e-06
1.00027971e-06
1.00037458e-06
1.00049942e-06
1.00066238e-06
1.00087282e-06
1.00114131e-06
1.00147988e-06
1.00190006e-06
1.00240872e-06
1.00300517e-06
1.00367478e-06
1.00437376e-06
1.00501522e-06
1.00000075e-06
1.00000231e-06
1.00000403e-06
1.00000611e-06
1.00000876e-06
1.00001227e-06
1.00001698e-06
1.00002337e-06
1.00003206e-06
1.00004388e-06
1.00005997e-06
1.00008184e-06
1.00011152e-06
1.00015172e-06
1.00020599e-06
1.00027904e-06
1.00037695e-06
1.00050754e-06
1.00068071e-06
1.00090865e-06
1.00120664e-06
1.00159278e-06
1.00208722e-06
1.00271151e-06
1.00348141e-06
1.00439588e-06
1.00541517e-06
1.0064099e-06
1.00000068e-06
1.00000209e-06
1.00000366e-06
1.00000555e-06
1.00000798e-06
1.00001121e-06
1.00001555e-06
1.00002147e-06
1.00002955e-06
1.00004059e-06
1.00005571e-06
1.00007638e-06
1.0001046e-06
1.0001431e-06
1.0001955e-06
1.00026668e-06
1.00036312e-06
1.00049342e-06
1.00066893e-06
1.00090463e-06
1.00122028e-06
1.00164175e-06
1.00220218e-06
1.00294434e-06
1.0039201e-06
1.00516761e-06
1.00667116e-06
1.00825824e-06
1.00000059e-06
1.00000181e-06
1.00000317e-06
1.00000482e-06
1.00000694e-06
1.00000977e-06
1.00001359e-06
1.0000188e-06
1.00002595e-06
1.00003577e-06
1.00004926e-06
1.00006779e-06
1.00009324e-06
1.00012814e-06
1.00017597e-06
1.00024144e-06
1.00033096e-06
1.00045327e-06
1.00062035e-06
1.00084882e-06
1.00116221e-06
1.00159448e-06
1.00219543e-06
1.00303743e-06
1.00422367e-06
1.00588617e-06
1.00808147e-06
1.01057047e-06
1.00000048e-06
1.00000147e-06
1.00000258e-06
1.00000393e-06
1.00000567e-06
1.00000799e-06
1.00001113e-06
1.00001544e-06
1.00002136e-06
1.00002951e-06
1.00004075e-06
1.00005624e-06
1.00007759e-06
1.00010702e-06
1.00014754e-06
1.00020334e-06
1.00028015e-06
1.00038598e-06
1.00053208e-06
1.00073477e-06
1.00101851e-06
1.00142184e-06
1.00200827e-06
1.00288459e-06
1.00422119e-06
1.00625755e-06
1.00928287e-06
1.01266737e-06
1.00000035e-06
1.00000109e-06
1.00000191e-06
1.00000291e-06
1.0000042e-06
1.00000592e-06
1.00000827e-06
1.00001148e-06
1.00001591e-06
1.00002202e-06
1.00003046e-06
1.00004213e-06
1.00005825e-06
1.00008053e-06
1.00011132e-06
1.00015386e-06
1.00021267e-06
1.00029409e-06
1.00040716e-06
1.00056525e-06
1.0007891e-06
1.001113e-06
1.00159788e-06
1.00235776e-06
1.00360297e-06
1.0056427e-06
1.00849087e-06
1.01597876e-06
1.00000018e-06
1.00000054e-06
1.00000092e-06
1.00000133e-06
1.00000179e-06
1.00000231e-06
1.00000291e-06
1.0000036e-06
1.00000441e-06
1.00000535e-06
1.00000643e-06
1.00000767e-06
1.00000909e-06
1.00001068e-06
1.00001246e-06
1.00001443e-06
1.00001656e-06
1.00001886e-06
1.0000213e-06
1.00002383e-06
1.00002642e-06
1.00002902e-06
1.00003156e-06
1.00003398e-06
1.00003622e-06
1.0000382e-06
1.00003987e-06
1.00004117e-06
1.00000018e-06
1.00000056e-06
1.00000094e-06
1.00000136e-06
1.00000183e-06
1.00000236e-06
1.00000297e-06
1.00000369e-06
1.00000452e-06
1.00000548e-06
1.0000066e-06
1.00000789e-06
1.00000936e-06
1.00001102e-06
1.00001287e-06
1.00001492e-06
1.00001716e-06
1.00001958e-06
1.00002213e-06
1.0000248e-06
1.00002754e-06
1.00003029e-06
1.00003298e-06
1.00003555e-06
1.00003792e-06
1.00004003e-06
1.00004181e-06
1.0000432e-06
1.0000002e-06
1.00000059e-06
1.000001e-06
1.00000144e-06
1.00000194e-06
1.0000025e-06
1.00000316e-06
1.00000393e-06
1.00000483e-06
1.00000588e-06
1.00000711e-06
1.00000852e-06
1.00001014e-06
1.00001198e-06
1.00001404e-06
1.00001634e-06
1.00001885e-06
1.00002157e-06
1.00002447e-06
1.00002751e-06
1.00003064e-06
1.00003379e-06
1.00003689e-06
1.00003986e-06
1.00004261e-06
1.00004506e-06
1.00004713e-06
1.00004875e-06
1.00000021e-06
1.00000065e-06
1.0000011e-06
1.00000159e-06
1.00000214e-06
1.00000277e-06
1.00000351e-06
1.00000438e-06
1.0000054e-06
1.00000661e-06
1.00000802e-06
1.00000966e-06
1.00001155e-06
1.00001371e-06
1.00001615e-06
1.00001889e-06
1.0000219e-06
1.00002518e-06
1.0000287e-06
1.00003241e-06
1.00003624e-06
1.00004013e-06
1.00004397e-06
1.00004766e-06
1.0000511e-06
1.00005417e-06
1.00005677e-06
1.0000588e-06
1.00000024e-06
1.00000073e-06
1.00000124e-06
1.0000018e-06
1.00000243e-06
1.00000316e-06
1.00000401e-06
1.00000503e-06
1.00000624e-06
1.00000767e-06
1.00000935e-06
1.00001133e-06
1.00001362e-06
1.00001626e-06
1.00001927e-06
1.00002266e-06
1.00002642e-06
1.00003055e-06
1.000035e-06
1.00003971e-06
1.00004462e-06
1.00004962e-06
1.00005459e-06
1.00005939e-06
1.00006388e-06
1.0000679e-06
1.00007131e-06
1.000074e-06
1.00000028e-06
1.00000084e-06
1.00000143e-06
1.00000207e-06
1.00000281e-06
1.00000366e-06
1.00000468e-06
1.00000589e-06
1.00000734e-06
1.00000908e-06
1.00001113e-06
1.00001356e-06
1.00001641e-06
1.00001971e-06
1.00002349e-06
1.00002779e-06
1.00003259e-06
1.00003789e-06
1.00004365e-06
1.0000498e-06
1.00005623e-06
1.00006283e-06
1.00006941e-06
1.0000758e-06
1.0000818e-06
1.00008719e-06
1.00009179e-06
1.0000954e-06
1.00000032e-06
1.00000097e-06
1.00000166e-06
1.00000241e-06
1.00000328e-06
1.00000429e-06
1.00000551e-06
1.00000697e-06
1.00000874e-06
1.00001086e-06
1.0000134e-06
1.00001643e-06
1.00001999e-06
1.00002416e-06
1.00002897e-06
1.00003447e-06
1.00004067e-06
1.00004756e-06
1.0000551e-06
1.0000632e-06
1.00007173e-06
1.00008052e-06
1.00008934e-06
1.00009796e-06
1.00010607e-06
1.0001134e-06
1.00011966e-06
1.00012459e-06
1.00000037e-06
1.00000113e-06
1.00000193e-06
1.00000282e-06
1.00000384e-06
1.00000505e-06
1.00000652e-06
1.00000829e-06
1.00001044e-06
1.00001305e-06
1.0000162e-06
1.00001998e-06
1.00002446e-06
1.00002974e-06
1.00003588e-06
1.00004296e-06
1.00005099e-06
1.00005998e-06
1.00006989e-06
1.0000806e-06
1.00009196e-06
1.00010374e-06
1.00011564e-06
1.00012731e-06
1.00013835e-06
1.00014836e-06
1.00015694e-06
1.00016372e-06
1.00000043e-06
1.00000132e-06
1.00000225e-06
1.00000329e-06
1.0000045e-06
1.00000595e-06
1.0000077e-06
1.00000985e-06
1.00001248e-06
1.00001569e-06
1.00001958e-06
1.00002429e-06
1.00002993e-06
1.00003661e-06
1.00004445e-06
1.00005354e-06
1.00006394e-06
1.00007568e-06
1.0000887e-06
1.00010288e-06
1.00011803e-06
1.00013383e-06
1.00014989e-06
1.00016573e-06
1.0001808e-06
1.00019451e-06
1.00020629e-06
1.00021563e-06
1.0000005e-06
1.00000153e-06
1.00000262e-06
1.00000383e-06
1.00000526e-06
1.00000698e-06
1.00000908e-06
1.00001167e-06
1.00001486e-06
1.00001879e-06
1.0000236e-06
1.00002944e-06
1.0000365e-06
1.00004493e-06
1.0000549e-06
1.00006655e-06
1.00007998e-06
1.00009525e-06
1.00011233e-06
1.00013108e-06
1.00015125e-06
1.00017243e-06
1.00019411e-06
1.00021561e-06
1.00023617e-06
1.00025497e-06
1.00027117e-06
1.00028405e-06
1.00000058e-06
1.00000176e-06
1.00000302e-06
1.00000444e-06
1.00000611e-06
1.00000814e-06
1.00001064e-06
1.00001374e-06
1.0000176e-06
1.00002238e-06
1.00002828e-06
1.0000355e-06
1.00004428e-06
1.00005486e-06
1.00006747e-06
1.00008233e-06
1.0000996e-06
1.0001194e-06
1.00014172e-06
1.00016642e-06
1.0001932e-06
1.00022155e-06
1.00025075e-06
1.00027991e-06
1.00030796e-06
1.00033371e-06
1.00035601e-06
1.00037378e-06
1.00000066e-06
1.00000202e-06
1.00000346e-06
1.0000051e-06
1.00000705e-06
1.00000943e-06
1.00001239e-06
1.00001608e-06
1.0000207e-06
1.00002647e-06
1.00003365e-06
1.00004251e-06
1.00005337e-06
1.00006655e-06
1.0000824e-06
1.00010122e-06
1.00012331e-06
1.00014883e-06
1.00017786e-06
1.00021027e-06
1.0002457e-06
1.00028351e-06
1.00032277e-06
1.00036225e-06
1.00040045e-06
1.00043573e-06
1.00046641e-06
1.00049092e-06
1.00000075e-06
1.00000229e-06
1.00000393e-06
1.0000058e-06
1.00000805e-06
1.00001082e-06
1.00001427e-06
1.00001864e-06
1.00002414e-06
1.00003106e-06
1.00003971e-06
1.00005049e-06
1.0000638e-06
1.0000801e-06
1.00009986e-06
1.00012355e-06
1.00015158e-06
1.00018429e-06
1.00022182e-06
1.00026411e-06
1.00031077e-06
1.00036101e-06
1.00041362e-06
1.00046694e-06
1.00051889e-06
1.00056716e-06
1.00060933e-06
1.00064315e-06
1.00000084e-06
1.00000256e-06
1.00000442e-06
1.00000655e-06
1.0000091e-06
1.00001228e-06
1.00001629e-06
1.00002139e-06
1.00002786e-06
1.00003607e-06
1.00004644e-06
1.00005942e-06
1.00007558e-06
1.00009555e-06
1.00011997e-06
1.00014952e-06
1.00018483e-06
1.0002264e-06
1.0002746e-06
1.00032944e-06
1.00039054e-06
1.00045699e-06
1.00052721e-06
1.000599e-06
1.00066951e-06