/*--------------------------------*- C++ -*----------------------------------*\
| =========                 |                                                 |
| \\      /  F ield         | foam-extend: Open Source CFD                    |
|  \\    /   O peration     | Version:     4.1                                |
|   \\  /    A nd           | Web:         http://www.foam-extend.org         |
|    \\/     M anipulation  |                                                 |
\*---------------------------------------------------------------------------*/
FoamFile
{
    version     2.0;
    format      ascii;
    class       volVectorField;
    location    "0.6";
    object      cellMotionU;
}
// * * * * * * * * * * * * * * * * * * * * * * * * * * * * * * * * * * * * * //

dimensions      [0 1 -1 0 0 0 0];

internalField   nonuniform List<vector> 
35840
(
(-1.28831431e-21 1.36088935e-09 -2.44989794e-22)
(-3.88078885e-21 4.09940097e-09 -7.37981691e-22)
(-6.56522619e-21 6.93502932e-09 -1.24845837e-21)
(-9.46123258e-21 9.99408036e-09 -1.7991619e-21)
(-1.26865056e-20 1.34008461e-08 -2.41247043e-21)
(-1.63585996e-20 1.72794623e-08 -3.11073346e-21)
(-2.05960021e-20 2.17550407e-08 -3.91647592e-21)
(-2.55183223e-20 2.69538641e-08 -4.85243332e-21)
(-3.12454353e-20 3.30024771e-08 -5.94138834e-21)
(-3.78954456e-20 4.00255306e-08 -7.20578258e-21)
(-4.55813553e-20 4.81422595e-08 -8.66708237e-21)
(-5.4406373e-20 5.74615253e-08 -1.03448858e-20)
(-6.4457866e-20 6.80754309e-08 -1.22557727e-20)
(-7.58000681e-20 8.00516239e-08 -1.44119173e-20)
(-8.84657905e-20 9.34245528e-08 -1.68195141e-20)
(-1.02447551e-19 1.08186115e-07 -1.94770917e-20)
(-1.17688719e-19 1.24276331e-07 -2.23738339e-20)
(-1.34075463e-19 1.41574858e-07 -2.54880518e-20)
(-1.51430419e-19 1.59894342e-07 -2.87859869e-20)
(-1.69509104e-19 1.78976653e-07 -3.2221137e-20)
(-1.88000078e-19 1.98493076e-07 -3.5734293e-20)
(-2.06529689e-19 2.18049342e-07 -3.92544498e-20)
(-2.24671969e-19 2.37196069e-07 -4.27006916e-20)
(-2.41963771e-19 2.55444739e-07 -4.59850718e-20)
(-2.57924706e-19 2.72288712e-07 -4.90164001e-20)
(-2.72080822e-19 2.87228186e-07 -5.17047358e-20)
(-2.8399046e-19 2.9979744e-07 -5.396629e-20)
(-2.93270391e-19 3.09592374e-07 -5.57283779e-20)
(-3.8813833e-21 4.10002917e-09 -7.38094734e-22)
(-1.16891174e-20 1.23475669e-08 -2.22283216e-21)
(-1.97705089e-20 2.08840919e-08 -3.75959907e-21)
(-2.84885111e-20 3.00928886e-08 -5.41740729e-21)
(-3.81997725e-20 4.03505857e-08 -7.26406673e-21)
(-4.9260404e-20 5.20332265e-08 -9.36728042e-21)
(-6.20294547e-20 6.55199256e-08 -1.17953036e-20)
(-7.68696426e-20 8.11936265e-08 -1.46170804e-20)
(-9.41448999e-20 9.94384928e-08 -1.79017748e-20)
(-1.1421432e-19 1.20633501e-07 -2.17176163e-20)
(-1.37422164e-19 1.45141871e-07 -2.61299972e-20)
(-1.64083707e-19 1.73296116e-07 -3.1198779e-20)
(-1.9446694e-19 2.05378714e-07 -3.69748104e-20)
(-2.28770421e-19 2.41598742e-07 -4.34957171e-20)
(-2.67098039e-19 2.82065252e-07 -5.0781105e-20)
(-3.09431915e-19 3.26758704e-07 -5.88274132e-20)
(-3.55605247e-19 3.7550237e-07 -6.76027628e-20)
(-4.05277491e-19 4.27936196e-07 -7.70422515e-20)
(-4.57914688e-19 4.8349613e-07 -8.70442352e-20)
(-5.12778083e-19 5.41402185e-07 -9.74681874e-20)
(-5.68924106e-19 6.00658499e-07 -1.08134722e-19)
(-6.25218385e-19 6.60068165e-07 -1.18828283e-19)
(-6.80365515e-19 7.18264674e-07 -1.29302817e-19)
(-7.32954976e-19 7.73760347e-07 -1.39290516e-19)
(-7.81521855e-19 8.25010359e-07 -1.48513345e-19)
(-8.24619164e-19 8.70488948e-07 -1.56696767e-19)
(-8.60896881e-19 9.08772693e-07 -1.63584723e-19)
(-8.89181646e-19 9.38624472e-07 -1.68954728e-19)
(-6.56741943e-21 6.93734736e-09 -1.24887544e-21)
(-1.97740968e-20 2.08878844e-08 -3.76028135e-21)
(-3.34409236e-20 3.53243311e-08 -6.35917163e-21)
(-4.81909235e-20 5.09046065e-08 -9.16400614e-21)
(-6.46361144e-20 6.82750043e-08 -1.22911461e-20)
(-8.3388144e-20 8.80813882e-08 -1.58568733e-20)
(-1.05064865e-19 1.10976109e-07 -1.99786369e-20)
(-1.30292127e-19 1.37619871e-07 -2.47753899e-20)
(-1.59700044e-19 1.68677757e-07 -3.03668735e-20)
(-1.93913009e-19 2.04808656e-07 -3.68717137e-20)
(-2.33532833e-19 2.46647427e-07 -4.44042083e-20)
(-2.79114583e-19 2.94779376e-07 -5.30697275e-20)
(-3.31135049e-19 3.49706953e-07 -6.29587135e-20)
(-3.89954308e-19 4.118092e-07 -7.41393722e-20)
(-4.55771575e-19 4.8129519e-07 -8.66492818e-20)
(-5.28577427e-19 5.58153675e-07 -1.0048632e-19)
(-6.08105487e-19 6.42102204e-07 -1.15599499e-19)
(-6.93787699e-19 7.32540056e-07 -1.31880491e-19)
(-7.84718189e-19 8.28510254e-07 -1.49156799e-19)
(-8.79631303e-19 9.2867655e-07 -1.67187636e-19)
(-9.76899423e-19 1.03132125e-06 -1.85663557e-19)
(-1.07455548e-18 1.13436909e-06 -2.04210802e-19)
(-1.17034353e-18 1.2354406e-06 -2.2240094e-19)
(-1.26179829e-18 1.33193603e-06 -2.39766013e-19)
(-1.34635153e-18 1.4211475e-06 -2.55818744e-19)
(-1.42145968e-18 1.50039345e-06 -2.70076736e-19)
(-1.48474378e-18 1.56716607e-06 -2.82088986e-19)
(-1.53413061e-18 1.61927993e-06 -2.91462591e-19)
(-9.46575842e-21 9.99886456e-09 -1.80002254e-21)
(-2.84978415e-20 3.01027531e-08 -5.41918158e-21)
(-4.81980361e-20 5.09121282e-08 -9.16535868e-21)
(-6.94842027e-20 7.33962411e-08 -1.32130692e-20)
(-9.32589033e-20 9.85081704e-08 -1.77339096e-20)
(-1.20426465e-19 1.27202781e-07 -2.28997962e-20)
(-1.51903936e-19 1.6044825e-07 -2.88850426e-20)
(-1.88624898e-19 1.99230044e-07 -3.58670765e-20)
(-2.31535012e-19 2.44546162e-07 -4.40255825e-20)
(-2.81578159e-19 2.97392451e-07 -5.35398573e-20)
(-3.39672158e-19 3.58736918e-07 -6.45841797e-20)
(-4.06673268e-19 4.2948222e-07 -7.73210503e-20)
(-4.83329197e-19 5.10416059e-07 -9.18922475e-20)
(-5.70221107e-19 6.02149983e-07 -1.08407796e-19)
(-6.67696173e-19 7.05048299e-07 -1.2693315e-19)
(-7.75793672e-19 8.1915019e-07 -1.47475156e-19)
(-8.94169131e-19 9.44089864e-07 -1.6996767e-19)
(-1.02202277e-18 1.07902128e-06 -1.94258005e-19)
(-1.15804001e-18 1.22255562e-06 -2.20095698e-19)
(-1.3003528e-18 1.37272075e-06 -2.47125257e-19)
(-1.44653091e-18 1.52695232e-06 -2.74884617e-19)
(-1.59361142e-18 1.68212493e-06 -3.02810846e-19)
(-1.73817223e-18 1.83462982e-06 -3.30254202e-19)
(-1.8764518e-18 1.98050115e-06 -3.56500946e-19)
(-2.0045123e-18 2.1155879e-06 -3.8080432e-19)
(-2.11843764e-18 2.2357625e-06 -4.02422095e-19)
(-2.21455235e-18 2.33715142e-06 -4.20657994e-19)
(-2.28964303e-18 2.41636829e-06 -4.3490355e-19)
(-1.26939435e-20 1.340871e-08 -2.41388481e-21)
(-3.82165316e-20 4.0368308e-08 -7.26725364e-21)
(-6.46530736e-20 6.82929434e-08 -1.2294371e-20)
(-9.32697814e-20 9.85196805e-08 -1.77359781e-20)
(-1.25314391e-19 1.32366027e-07 -2.38292864e-20)
(-1.62042092e-19 1.71157217e-07 -3.08128989e-20)
(-2.0473287e-19 2.16244455e-07 -3.89300967e-20)
(-2.5469887e-19 2.69012607e-07 -4.84302251e-20)
(-3.13280141e-19 3.30875622e-07 -5.95678676e-20)
(-3.81827071e-19 4.03257904e-07 -7.25994863e-20)
(-4.6166788e-19 4.87559912e-07 -8.77772186e-20)
(-5.54059794e-19 5.85106565e-07 -1.05339571e-19)
(-6.60123131e-19 6.97077672e-07 -1.25498869e-19)
(-7.80758582e-19 8.24420675e-07 -1.48425515e-19)
(-9.16549484e-19 9.67747658e-07 -1.74229414e-19)
(-1.06765292e-18 1.12722065e-06 -2.02939295e-19)
(-1.23368588e-18 1.30243183e-06 -2.34481122e-19)
(-1.41361537e-18 1.49228797e-06 -2.68657308e-19)
(-1.60566385e-18 1.69491105e-06 -3.05128868e-19)
(-1.80724336e-18 1.90756924e-06 -3.43403083e-19)
(-2.01493246e-18 2.12665286e-06 -3.82829329e-19)
(-2.22450936e-18 2.34770963e-06 -4.22605577e-19)
(-2.43105129e-18 2.56554951e-06 -4.61797464e-19)
(-2.62910479e-18 2.77442426e-06 -4.99370751e-19)
(-2.81292381e-18 2.96827831e-06 -5.34236564e-19)
(-2.97676356e-18 3.14105826e-06 -5.65307051e-19)
(-3.11520889e-18 3.28705864e-06 -5.91557469e-19)
(-3.22350876e-18 3.40127413e-06 -6.12089284e-19)
(-1.63694608e-20 1.72909478e-08 -3.11279881e-21)
(-4.92861115e-20 5.2060417e-08 -9.37216888e-21)
(-8.34174802e-20 8.81124265e-08 -1.58624517e-20)
(-1.20451751e-19 1.27229542e-07 -2.29046043e-20)
(-1.62057459e-19 1.71173486e-07 -3.08158209e-20)
(-2.09921829e-19 2.21725462e-07 -3.99168069e-20)
(-2.65777424e-19 2.80714182e-07 -5.05368275e-20)
(-3.31415388e-19 3.50029721e-07 -6.30162024e-20)
(-4.0868292e-19 4.31620709e-07 -7.77057944e-20)
(-4.9946245e-19 5.27472212e-07 -9.49630144e-20)
(-6.05630065e-19 6.39561728e-07 -1.15143876e-19)
(-7.28990808e-19 7.69790823e-07 -1.38590651e-19)
(-8.71189185e-19 9.19890681e-07 -1.65614812e-19)
(-1.03359452e-18 1.09130124e-06 -1.96475211e-19)
(-1.21716295e-18 1.28502576e-06 -2.31351832e-19)
(-1.42228058e-18 1.50146578e-06 -2.70316016e-19)
(-1.64859612e-18 1.74024501e-06 -3.13298725e-19)
(-1.89485508e-18 2.00003502e-06 -3.60059198e-19)
(-2.15875195e-18 2.27839997e-06 -4.10157098e-19)
(-2.43682004e-18 2.57168103e-06 -4.62931906e-19)
(-2.72438085e-18 2.87494346e-06 -5.17493699e-19)
(-3.01557404e-18 3.18200854e-06 -5.72729259e-19)
(-3.30348535e-18 3.48558854e-06 -6.27326752e-19)
(-3.58038166e-18 3.77753448e-06 -6.79820627e-19)
(-3.83805104e-18 4.04919423e-06 -7.28656226e-19)
(-4.06823103e-18 4.29186356e-06 -7.72270867e-19)
(-4.26309414e-18 4.4972973e-06 -8.0918547e-19)
(-4.41574677e-18 4.65823461e-06 -8.38098487e-19)
(-2.061077e-20 2.17706603e-08 -3.91928409e-21)
(-6.20656954e-20 6.55582642e-08 -1.18021949e-20)
(-1.05109494e-19 1.11023337e-07 -1.99871232e-20)
(-1.51947883e-19 1.60494771e-07 -2.88933991e-20)
(-2.0476905e-19 2.16282765e-07 -3.8936976e-20)
(-2.65799304e-19 2.80737356e-07 -5.05409878e-20)
(-3.37343067e-19 3.56290456e-07 -6.41433204e-20)
(-4.21805534e-19 4.45479577e-07 -8.02008802e-20)
(-5.21694304e-19 5.5094934e-07 -9.9189851e-20)
(-6.39596324e-19 6.75426929e-07 -1.21601246e-19)
(-7.78126669e-19 8.21667855e-07 -1.47931095e-19)
(-9.39845112e-19 9.9236782e-07 -1.78664498e-19)
(-1.12713729e-18 1.19003733e-06 -2.14252952e-19)
(-1.34205875e-18 1.41683737e-06 -2.5508464e-19)
(-1.58614313e-18 1.67437739e-06 -3.0144793e-19)
(-1.86017944e-18 1.96348096e-06 -3.53489081e-19)
(-2.16396886e-18 2.28393006e-06 -4.11166152e-19)
(-2.49607741e-18 2.63420508e-06 -4.74202258e-19)
(-2.85360721e-18 3.01124452e-06 -5.42042547e-19)
(-3.23201547e-18 3.41025495e-06 -6.13820399e-19)
(-3.62501408e-18 3.82460571e-06 -6.88339101e-19)
(-4.02458335e-18 4.24584386e-06 -7.64075284e-19)
(-4.42112903e-18 4.66385965e-06 -8.39209502e-19)
(-4.80380034e-18 5.0672215e-06 -9.11687174e-19)
(-5.1609697e-18 5.44368118e-06 -9.79309803e-19)
(-5.48085243e-18 5.78082622e-06 -1.03985219e-18)
(-5.75222083e-18 6.06683178e-06 -1.09119695e-18)
(-5.9651464e-18 6.29124205e-06 -1.1314738e-18)
(-2.55373634e-20 2.69740069e-08 -4.85605396e-21)
(-7.69181333e-20 8.12449329e-08 -1.46263008e-20)
(-1.30356036e-19 1.37687511e-07 -2.47875419e-20)
(-1.88693736e-19 1.99302921e-07 -3.58801653e-20)
(-2.54763907e-19 2.69081478e-07 -4.84425908e-20)
(-3.31468672e-19 3.50086162e-07 -6.30263332e-20)
(-4.21837955e-19 4.45513929e-07 -8.02070441e-20)
(-5.29067158e-19 5.58735188e-07 -1.00591606e-19)
(-6.56526775e-19 6.93303627e-07 -1.2481987e-19)
(-8.07738889e-19 8.52931106e-07 -1.53560073e-19)
(-9.86316589e-19 1.04142348e-06 -1.87497181e-19)
(-1.19585906e-18 1.2625698e-06 -2.27312789e-19)
(-1.43979678e-18 1.51997907e-06 -2.73655538e-19)
(-1.7211827e-18 1.81686027e-06 -3.2710126e-19)
(-2.0424289e-18 2.15574531e-06 -3.88102846e-19)
(-2.40499385e-18 2.53816002e-06 -4.56930819e-19)
(-2.80903246e-18 2.96425634e-06 -5.3360702e-19)
(-3.25303028e-18 3.4324278e-06 -6.1783553e-19)
(-3.73345316e-18 3.93894141e-06 -7.08936857e-19)
(-4.24445405e-18 4.47762958e-06 -8.05793335e-19)
(-4.77768669e-18 5.03969439e-06 -9.06815139e-19)
(-5.32227893e-18 5.61367971e-06 -1.00993682e-18)
(-5.86501372e-18 6.18566185e-06 -1.11265322e-18)
(-6.39075134e-18 6.73969391e-06 -1.21210084e-18)
(-6.88310039e-18 7.2585122e-06 -1.30518554e-18)
(-7.32531089e-18 7.72447639e-06 -1.38875141e-18)
(-7.70132361e-18 8.12067435e-06 -1.45977787e-18)
(-7.99687473e-18 8.43208539e-06 -1.51558619e-18)
(-3.12684797e-20 3.30268604e-08 -5.94577001e-21)
(-9.42070002e-20 9.950421e-08 -1.79135825e-20)
(-1.59789242e-19 1.68772168e-07 -3.03838333e-20)
(-2.31638839e-19 2.44656082e-07 -4.40453233e-20)
(-3.13387057e-19 3.30988842e-07 -5.9588195e-20)
(-4.08783211e-19 4.31726941e-07 -7.77248611e-20)
(-5.21775837e-19 5.51035734e-07 -9.92053508e-20)
(-6.56575648e-19 6.93355437e-07 -1.24829161e-19)
(-8.1767888e-19 8.63425313e-07 -1.55449539e-19)
(-1.00984544e-18 1.06626019e-06 -1.91969132e-19)
(-1.23803154e-18 1.30707906e-06 -2.35326926e-19)
(-1.5072611e-18 1.59116935e-06 -2.8647352e-19)
(-1.82242842e-18 1.92367893e-06 -3.46333289e-19)
(-2.18802238e-18 2.30932592e-06 -4.15751677e-19)
(-2.60776978e-18 2.7520235e-06 -4.95427168e-19)
(-3.08420052e-18 3.25442286e-06 -5.85828615e-19)
(-3.61814895e-18 3.81738908e-06 -6.87100719e-19)
(-4.20821773e-18 4.43943764e-06 -7.98962862e-19)
(-4.85024621e-18 5.11617549e-06 -9.20609391e-19)
(-5.53684239e-18 5.83980887e-06 -1.05062269e-18)
(-6.25705245e-18 6.59879557e-06 -1.18691305e-18)
(-6.99625012e-18 7.37772823e-06 -1.32670078e-18)
(-7.73632507e-18 8.1575323e-06 -1.46655512e-18)
(-8.45623082e-18 8.91604231e-06 -1.60250071e-18)
(-9.13291537e-18 9.62898137e-06 -1.73019535e-18)
(-9.74260451e-18 1.02713121e-05 -1.84517229e-18)
(-1.02623442e-17 1.08188609e-05 -1.94312919e-18)
(-1.06716484e-17 1.12500534e-05 -2.02023459e-18)
(-3.79195871e-20 4.00510874e-08 -7.2103725e-21)
(-1.1428862e-19 1.20712148e-07 -2.17317425e-20)
(-1.94037345e-19 2.04940255e-07 -3.6895353e-20)
(-2.81734187e-19 2.97557618e-07 -5.35695212e-20)
(-3.81997097e-19 4.03437936e-07 -7.26318101e-20)
(-4.99636632e-19 5.27656692e-07 -9.49961265e-20)
(-6.39755685e-19 6.75595784e-07 -1.21631539e-19)
(-8.07863347e-19 8.53063067e-07 -1.53583729e-19)
(-1.00991925e-18 1.06633851e-06 -1.91983159e-19)
(-1.2523118e-18 1.32215064e-06 -2.38040586e-19)
(-1.54179383e-18 1.62760839e-06 -2.93034393e-19)
(-1.88532853e-18 1.99003849e-06 -3.58280769e-19)
(-2.28984453e-18 2.41672767e-06 -4.35086557e-19)
(-2.76187731e-18 2.91454563e-06 -5.24680503e-19)
(-3.30709257e-18 3.48944398e-06 -6.28122153e-19)
(-3.92968844e-18 4.14582814e-06 -7.46188023e-19)
(-4.63169221e-18 4.8858182e-06 -8.79238216e-19)
(-5.41218238e-18 5.70843107e-06 -1.02706969e-18)
(-6.26648998e-18 6.60874034e-06 -1.18876669e-18)
(-7.18546133e-18 7.5771003e-06 -1.36256423e-18)
(-8.15489097e-18 8.59854843e-06 -1.54574531e-18)
(-9.15525186e-18 9.65252028e-06 -1.73459572e-18)
(-1.01618518e-17 1.07130129e-05 -1.92444002e-18)
(-1.11455228e-17 1.17493096e-05 -2.10977773e-18)
(-1.20738986e-17 1.27273241e-05 -2.28452846e-18)
(-1.29132528e-17 1.36115362e-05 -2.44237896e-18)
(-1.36307674e-17 1.43673806e-05 -2.57720646e-18)
(-1.41969987e-17 1.49638451e-05 -2.68353429e-18)
(-4.55939553e-20 4.81556439e-08 -8.66947698e-21)
(-1.37495409e-19 1.4521946e-07 -2.6143921e-20)
(-2.33711553e-19 2.46836562e-07 -4.44381848e-20)
(-3.39911067e-19 3.5898977e-07 -6.46295977e-20)
(-4.61933008e-19 4.87840603e-07 -8.78276184e-20)
(-6.05925516e-19 6.39874581e-07 -1.15200037e-19)
(-7.7841514e-19 8.21973469e-07 -1.47985924e-19)
(-9.86561266e-19 1.04168294e-06 -1.87543681e-19)
(-1.2382218e-18 1.307281e-06 -2.35363078e-19)
(-1.54190595e-18 1.62772753e-06 -2.93055693e-19)
(-1.90675313e-18 2.01264166e-06 -3.62350122e-19)
(-2.34234259e-18 2.47210127e-06 -4.45054842e-19)
(-2.85840551e-18 3.01634033e-06 -5.43002377e-19)
(-3.46436334e-18 3.65526385e-06 -6.57960361e-19)
(-4.16870271e-18 4.39779138e-06 -7.91511663e-19)
(-4.97816228e-18 5.25100265e-06 -9.44899149e-19)
(-5.89675266e-18 6.21910754e-06 -1.11883959e-18)
(-6.92464096e-18 7.30227287e-06 -1.31331325e-18)
(-8.05696335e-18 8.49537258e-06 -1.52734183e-18)
(-9.28267877e-18 9.78678002e-06 -1.75877695e-18)
(-1.05836208e-17 1.1157368e-05 -2.00412907e-18)
(-1.19339414e-17 1.25799208e-05 -2.25847349e-18)
(-1.3300155e-17 1.40191777e-05 -2.51547122e-18)
(-1.46419664e-17 1.54327034e-05 -2.76753762e-18)
(-1.59140003e-17 1.67727078e-05 -3.00617698e-18)
(-1.70684226e-17 1.79888064e-05 -3.22247791e-18)
(-1.8058279e-17 1.9031538e-05 -3.40773369e-18)
(-1.88411976e-17 1.98562658e-05 -3.55412065e-18)
(-5.43150708e-20 5.73651972e-08 -1.03275236e-20)
(-1.64097832e-19 1.73311334e-07 -3.1201458e-20)
(-2.79399331e-19 2.95080613e-07 -5.31238574e-20)
(-4.07053951e-19 4.29885003e-07 -7.73934155e-20)
(-5.54454808e-19 5.85524742e-07 -1.05414655e-19)
(-7.29494657e-19 7.70324182e-07 -1.38686415e-19)
(-9.40357176e-19 9.92910165e-07 -1.78761814e-19)
(-1.19629368e-18 1.26303069e-06 -2.27395376e-19)
(-1.5076439e-18 1.59157568e-06 -2.86546242e-19)
(-1.88562157e-18 1.99034998e-06 -3.58336422e-19)
(-2.34252227e-18 2.47229248e-06 -4.45088954e-19)
(-2.89141242e-18 3.05114881e-06 -5.492671e-19)
(-3.54585077e-18 3.74117947e-06 -6.73419354e-19)
(-4.31928148e-18 4.55652265e-06 -8.20061822e-19)
(-5.22424354e-18 5.51036447e-06 -9.91525708e-19)
(-6.27127056e-18 6.61378317e-06 -1.18974652e-18)
(-7.46754594e-18 7.87433522e-06 -1.41600807e-18)
(-8.81532654e-18 9.29439652e-06 -1.67064489e-18)
(-1.0310197e-17 1.08693235e-05 -1.95271616e-18)
(-1.19393099e-17 1.25855982e-05 -2.25968207e-18)
(-1.36798345e-17 1.441919e-05 -2.58712546e-18)
(-1.54979046e-17 1.63344445e-05 -2.92857405e-18)
(-1.73483957e-17 1.82838445e-05 -3.27548332e-18)
(-1.91758471e-17 2.02089783e-05 -3.61743538e-18)
(-2.09167564e-17 2.20429554e-05 -3.9425899e-18)
(-2.25032942e-17 2.37143197e-05 -4.2383881e-18)
(-2.38682179e-17 2.51522273e-05 -4.49246134e-18)
(-2.49504528e-17 2.62923283e-05 -4.69364291e-18)
(-6.44804679e-20 6.80994441e-08 -1.22600681e-20)
(-1.94624153e-19 2.05545173e-07 -3.70046955e-20)
(-3.314305e-19 3.50019713e-07 -6.30148777e-20)
(-4.83581316e-19 5.10683429e-07 -9.19401689e-20)
(-6.60617824e-19 6.9760158e-07 -1.25592886e-19)
(-8.72083948e-19 9.20837434e-07 -1.65784859e-19)
(-1.12805836e-18 1.19101246e-06 -2.14427978e-19)
(-1.44050298e-18 1.52072805e-06 -2.73789702e-19)
(-1.82314653e-18 1.92444101e-06 -3.46469678e-19)
(-2.290435e-18 2.41735542e-06 -4.35198666e-19)
(-2.85889257e-18 3.01685866e-06 -5.43094808e-19)
(-3.54613262e-18 3.74147997e-06 -6.73472816e-19)
(-4.37091452e-18 4.61095306e-06 -8.2985093e-19)
(-5.35220929e-18 5.64523544e-06 -1.01576915e-18)
(-6.50831201e-18 6.86357769e-06 -1.23461592e-18)
(-7.85532362e-18 8.28292814e-06 -1.48933579e-18)
(-9.40534942e-18 9.91603798e-06 -1.78208494e-18)
(-1.11643164e-17 1.17691627e-05 -2.11381826e-18)
(-1.31294329e-17 1.38393847e-05 -2.48381502e-18)
(-1.52865245e-17 1.61118021e-05 -2.88919035e-18)
(-1.76075412e-17 1.85568977e-05 -3.32445092e-18)
(-2.00486724e-17 2.11285472e-05 -3.78117804e-18)
(-2.25495815e-17 2.37632079e-05 -4.2479321e-18)
(-2.5034285e-17 2.63808419e-05 -4.71046945e-18)
(-2.74141095e-17 2.88880305e-05 -5.15233989e-18)
(-2.95929059e-17 3.11834693e-05 -5.55588127e-18)
(-3.14742737e-17 3.31655819e-05 -5.90354902e-18)
(-3.29700102e-17 3.47414252e-05 -6.17942754e-18)
(-7.58435194e-20 8.00977257e-08 -1.44201774e-20)
(-2.28920932e-19 2.4175834e-07 -4.35243294e-20)
(-3.90223081e-19 4.12094152e-07 -7.41904646e-20)
(-5.70621434e-19 6.02574385e-07 -1.0848389e-19)
(-7.8148332e-19 8.25188219e-07 -1.48563261e-19)
(-1.03450385e-18 1.09226452e-06 -1.96648027e-19)
(-1.34272074e-18 1.41754074e-06 -2.55210438e-19)
(-1.72211634e-18 1.81785152e-06 -3.27278583e-19)
(-2.18939992e-18 2.31078666e-06 -4.16013242e-19)
(-2.76292763e-18 2.91566239e-06 -5.24879848e-19)
(-3.46542282e-18 3.65639064e-06 -6.58161336e-19)
(-4.32003188e-18 4.55732283e-06 -8.20204073e-19)
(-5.35267633e-18 5.64573393e-06 -1.0158576e-18)
(-6.58972641e-18 6.94937646e-06 -1.25002511e-18)
(-8.05760627e-18 8.49607026e-06 -1.5275791e-18)
(-9.78043057e-18 1.03112173e-05 -1.85290414e-18)
(-1.17777325e-17 1.24154102e-05 -2.22945902e-18)
(-1.40615365e-17 1.48213473e-05 -2.65922029e-18)
(-1.66326771e-17 1.75299501e-05 -3.14199425e-18)
(-1.94768333e-17 2.05261779e-05 -3.67469139e-18)
(-2.25605885e-17 2.37748689e-05 -4.25062871e-18)
(-2.58281829e-17 2.72173109e-05 -4.85898859e-18)
(-2.91997276e-17 3.07693558e-05 -5.48457665e-18)
(-3.25717342e-17 3.43219748e-05 -6.10802602e-18)
(-3.58207488e-17 3.77450895e-05 -6.70657083e-18)
(-3.88105652e-17 4.08951751e-05 -7.25544074e-18)
(-4.14028188e-17 4.36264264e-05 -7.72980314e-18)
(-4.34698335e-17 4.58042987e-05 -8.10702379e-18)
(-8.85107894e-20 9.34723834e-08 -1.68280686e-20)
(-2.67239193e-19 2.82215259e-07 -5.08079388e-20)
(-4.56020205e-19 4.81559398e-07 -8.66965453e-20)
(-6.68075073e-19 7.05450934e-07 -1.27005172e-19)
(-9.17109781e-19 9.68342944e-07 -1.74335907e-19)
(-1.21787982e-18 1.28578778e-06 -2.31488066e-19)
(-1.58699156e-18 1.67528003e-06 -3.01609131e-19)
(-2.04371452e-18 2.15711124e-06 -3.88347037e-19)
(-2.60872416e-18 2.75304261e-06 -4.95608414e-19)
(-3.3086037e-18 3.49105273e-06 -6.28408799e-19)
(-4.17097672e-18 4.40020608e-06 -7.91942826e-19)
(-5.22573317e-18 5.51195296e-06 -9.91807891e-19)
(-6.50962336e-18 6.86497613e-06 -1.23486405e-18)
(-8.05816673e-18 8.49667176e-06 -1.52768498e-18)
(-9.90946184e-18 1.04471706e-05 -1.87726211e-18)
(-1.20988595e-17 1.27537306e-05 -2.28997734e-18)
(-1.46567907e-17 1.54484484e-05 -2.77117458e-18)
(-1.76050403e-17 1.85543289e-05 -3.32444497e-18)
(-2.09513077e-17 2.20795455e-05 -3.95060632e-18)
(-2.46834766e-17 2.60113928e-05 -4.6466561e-18)
(-2.87634633e-17 3.03097938e-05 -5.40468812e-18)
(-3.31217991e-17 3.49015859e-05 -6.21100016e-18)
(-3.76540375e-17 3.96767313e-05 -7.04559731e-18)
(-4.222031e-17 4.44878519e-05 -7.88232069e-18)
(-4.66494389e-17 4.91545664e-05 -8.6898171e-18)
(-5.07486835e-17 5.3473766e-05 -9.43347478e-18)
(-5.43191889e-17 5.72358982e-05 -1.00782531e-17)
(-5.71756071e-17 6.02456438e-05 -1.05920673e-17)
(-1.02489539e-19 1.082309e-07 -1.94850739e-20)
(-3.09560531e-19 3.26895888e-07 -5.88518637e-20)
(-5.28801028e-19 5.58392209e-07 -1.00528826e-19)
(-7.76128629e-19 8.19507652e-07 -1.47538825e-19)
(-1.06812263e-18 1.12772218e-06 -2.03028569e-19)
(-1.42289679e-18 1.50212431e-06 -2.70433115e-19)
(-1.86097021e-18 1.9643267e-06 -3.53639317e-19)
(-2.4060505e-18 2.53928992e-06 -4.57131506e-19)
(-3.08551532e-18 3.2558291e-06 -5.86078218e-19)
(-3.93181273e-18 4.14809198e-06 -7.46591063e-19)
(-4.97957299e-18 5.25251849e-06 -9.45166766e-19)
(-6.27350384e-18 6.61616884e-06 -1.19016907e-18)
(-7.85856599e-18 8.28637653e-06 -1.48994874e-18)
(-9.78172199e-18 1.03126057e-05 -1.85314758e-18)
(-1.20996263e-17 1.27545558e-05 -2.29012121e-18)
(-1.48624344e-17 1.5665108e-05 -2.80983979e-18)
(-1.81160463e-17 1.90926843e-05 -3.42027562e-18)
(-2.18975738e-17 2.30764615e-05 -4.12751729e-18)
(-2.62265425e-17 2.76370888e-05 -4.93410875e-18)
(-3.10972915e-17 3.27686655e-05 -5.83765964e-18)
(-3.6469317e-17 3.84285564e-05 -6.8291498e-18)
(-4.22585413e-17 4.4528188e-05 -7.89150978e-18)
(-4.83306668e-17 5.09260474e-05 -8.99870743e-18)
(-5.4498595e-17 5.742497e-05 -1.01156874e-17)
(-6.05263188e-17 6.37762483e-05 -1.11995302e-17)
(-6.61415902e-17 6.96929879e-05 -1.22021036e-17)
(-7.10582101e-17 7.48735983e-05 -1.30741706e-17)
(-7.50060974e-17 7.90334787e-05 -1.37704603e-17)
(-1.17726628e-19 1.24316998e-07 -2.23810406e-20)
(-3.55720418e-19 3.75625947e-07 -6.76246568e-20)
(-6.0830394e-19 6.42315267e-07 -1.15637223e-19)
(-8.94463109e-19 9.44405817e-07 -1.70023549e-19)
(-1.23409285e-18 1.30286983e-06 -2.3455847e-19)
(-1.64913661e-18 1.7408276e-06 -3.13401429e-19)
(-2.16467589e-18 2.28469316e-06 -4.1130047e-19)
(-2.80996099e-18 2.96525896e-06 -5.33783358e-19)
(-3.61935718e-18 3.81869345e-06 -6.87330066e-19)
(-4.63331488e-18 4.88756678e-06 -8.79546051e-19)
(-5.89868592e-18 6.22119023e-06 -1.11920603e-18)
(-7.47066081e-18 7.87766797e-06 -1.41659778e-18)
(-9.40656713e-18 9.91737437e-06 -1.78231564e-18)
(-1.17793263e-17 1.24171409e-05 -2.2297578e-18)
(-1.46591685e-17 1.54509952e-05 -2.77161945e-18)
(-1.81189021e-17 1.90957174e-05 -3.42080967e-18)
(-2.22256333e-17 2.34221006e-05 -4.18882029e-18)
(-2.70409057e-17 2.84950825e-05 -5.08567557e-18)
(-3.26029248e-17 3.43549993e-05 -6.11655998e-18)
(-3.89198772e-17 4.10105313e-05 -7.280595e-18)
(-4.59536738e-17 4.8421566e-05 -8.56797062e-18)
(-5.36066356e-17 5.64851719e-05 -9.95781704e-18)
(-6.17099343e-17 6.50234267e-05 -1.14166468e-17)
(-7.00168169e-17 7.37762901e-05 -1.28979168e-17)
(-7.82045184e-17 8.240363e-05 -1.43433074e-17)
(-8.58896258e-17 9.05014172e-05 -1.5686296e-17)
(-9.26595952e-17 9.76349373e-05 -1.68580881e-17)
(-9.81188754e-17 0.000103387389 -1.77952157e-17)
(-1.34109262e-19 1.41611454e-07 -2.54944771e-20)
(-4.05379808e-19 4.28047041e-07 -7.70617018e-20)
(-6.93963163e-19 7.32730381e-07 -1.31913845e-19)
(-1.02228143e-18 1.07930244e-06 -1.94307168e-19)
(-1.41397253e-18 1.49267722e-06 -2.68725186e-19)
(-1.89533189e-18 2.00055609e-06 -3.60149796e-19)
(-2.49670438e-18 2.63489181e-06 -4.74321358e-19)
(-3.25385017e-18 3.43332696e-06 -6.17991219e-19)
(-4.20928267e-18 4.44060562e-06 -7.99164984e-19)
(-5.41355719e-18 5.70993695e-06 -1.02733045e-18)
(-6.92634827e-18 7.30414008e-06 -1.31363678e-18)
(-8.81742537e-18 9.29668523e-06 -1.67104215e-18)
(-1.11660972e-17 1.17711214e-05 -2.11415473e-18)
(-1.40628485e-17 1.48228108e-05 -2.6594672e-18)
(-1.76108506e-17 1.85605235e-05 -3.32553057e-18)
(-2.19076726e-17 2.30871562e-05 -4.12940344e-18)
(-2.70451748e-17 2.84996108e-05 -5.08646895e-18)
(-3.31275494e-17 3.49077676e-05 -6.21366113e-18)
(-4.02178621e-17 4.23781486e-05 -7.51934647e-18)
(-4.83516612e-17 5.09482399e-05 -9.00583684e-18)
(-5.75018968e-17 6.05895298e-05 -1.0663086e-17)
(-6.75618828e-17 7.11895668e-05 -1.24660772e-17)
(-7.83260054e-17 8.25316482e-05 -1.43722847e-17)
(-8.94753677e-17 9.42797086e-05 -1.63205788e-17)
(-1.00573767e-16 0.00010597409 -1.82324171e-17)
(-1.11083884e-16 0.000117048601 -2.00165718e-17)
(-1.20410173e-16 0.000126875709 -2.15776421e-17)
(-1.27969213e-16 0.000134840665 -2.28274225e-17)
(-1.51460402e-19 1.59927283e-07 -2.87916868e-20)
(-4.58005302e-19 4.83595789e-07 -8.70614604e-20)
(-7.84873235e-19 8.2868117e-07 -1.49186271e-19)
(-1.15826818e-18 1.22280807e-06 -2.20139064e-19)
(-1.6059789e-18 1.69526122e-06 -3.05188739e-19)
(-2.15917359e-18 2.27887075e-06 -4.10237209e-19)
(-2.85416293e-18 3.01186733e-06 -5.42148104e-19)
(-3.73417998e-18 3.93975775e-06 -7.09074858e-19)
(-4.85119142e-18 5.1172373e-06 -9.20788756e-19)
(-6.26771271e-18 6.61011105e-06 -1.18899854e-18)
(-8.05853251e-18 8.49712425e-06 -1.52763903e-18)
(-1.0312223e-17 1.08715698e-05 -1.95309927e-18)
(-1.31320923e-17 1.38423059e-05 -2.48431661e-18)
(-1.66369654e-17 1.75345875e-05 -3.14280052e-18)
(-2.09605604e-17 2.20894032e-05 -3.95234128e-18)
(-2.62321768e-17 2.76431158e-05 -4.93516545e-18)
(-3.2612421e-17 3.43650693e-05 -6.11831111e-18)
(-4.02304436e-17 4.23914372e-05 -7.52165958e-18)
(-4.91860385e-17 5.1827417e-05 -9.15798258e-18)
(-5.95733912e-17 6.27722439e-05 -1.103716e-17)
(-7.13882633e-17 7.52214088e-05 -1.31492298e-17)
(-8.45258484e-17 8.90644186e-05 -1.54647803e-17)
(-9.87471979e-17 0.000104049439 -1.79304865e-17)
(-1.13652639e-16 0.000119755296 -2.04670697e-17)
(-1.28663177e-16 0.000135571886 -2.29698455e-17)
(-1.43032082e-16 0.000150712374 -2.53149019e-17)
(-1.55898886e-16 0.00016427009 -2.73712364e-17)
(-1.66394502e-16 0.000175329284 -2.90177023e-17)
(-1.69535637e-19 1.79006465e-07 -3.22261808e-20)
(-5.12858202e-19 5.41492374e-07 -9.74834173e-20)
(-8.79768256e-19 9.28831315e-07 -1.67213667e-19)
(-1.30055423e-18 1.37294979e-06 -2.47163542e-19)
(-1.80752164e-18 1.90788796e-06 -3.43455965e-19)
(-2.43719305e-18 2.57211131e-06 -4.63002775e-19)
(-3.23250802e-18 3.41082636e-06 -6.13913948e-19)
(-4.24509963e-18 4.47838089e-06 -8.05915896e-19)
(-5.53768568e-18 5.84078995e-06 -1.05078269e-18)
(-7.18656278e-18 7.57837619e-06 -1.36277303e-18)
(-9.28412463e-18 9.78844053e-06 -1.75905072e-18)
(-1.19412411e-17 1.25877876e-05 -2.26004712e-18)
(-1.52891966e-17 1.61147822e-05 -2.88969437e-18)
(-1.9480785e-17 2.0530506e-05 -3.67543486e-18)
(-2.46894343e-17 2.60178223e-05 -4.64777383e-18)
(-3.11043966e-17 3.2776281e-05 -5.83898702e-18)
(-3.89323017e-17 4.10237201e-05 -7.28290025e-18)
(-4.83548132e-17 5.09516233e-05 -9.00643377e-18)
(-5.95760417e-17 6.27750648e-05 -1.10376121e-17)
(-7.27199687e-17 7.6624639e-05 -1.33863915e-17)
(-8.78446413e-17 9.25614406e-05 -1.60469008e-17)
(-1.04870783e-16 0.000110501868 -1.89855447e-17)
(-1.23540333e-16 0.000130173959 -2.21360475e-17)
(-1.43377313e-16 0.000151076148 -2.53971869e-17)
(-1.63634582e-16 0.000172421172 -2.86309925e-17)
(-1.83289576e-16 0.000193131561 -3.16710771e-17)
(-2.01100748e-16 0.000211899109 -3.43398374e-17)
(-2.15755834e-16 0.000227341093 -3.64735203e-17)
(-1.88023506e-19 1.98520304e-07 -3.57387465e-20)
(-5.68994815e-19 6.00740924e-07 -1.08148163e-19)
(-9.77020224e-19 1.03146295e-06 -1.85686518e-19)
(-1.44670854e-18 1.52716269e-06 -2.74918378e-19)
(-2.01517793e-18 2.12694684e-06 -3.82875975e-19)
(-2.72471013e-18 2.87534206e-06 -5.17556255e-19)
(-3.62544931e-18 3.82513695e-06 -6.88421759e-19)
(-4.77825795e-18 5.0403945e-06 -9.06923581e-19)
(-6.25780039e-18 6.59971087e-06 -1.18705494e-18)
(-8.1558714e-18 8.59973894e-06 -1.54593115e-18)
(-1.05849127e-17 1.11589147e-05 -2.00437367e-18)
(-1.36815544e-17 1.44212092e-05 -2.58745056e-18)
(-1.76098601e-17 1.85595591e-05 -3.32488843e-18)
(-2.25637348e-17 2.37783992e-05 -4.25122097e-18)
(-2.87675834e-17 3.03143326e-05 -5.40546166e-18)
(-3.64741026e-17 3.84337658e-05 -6.83004541e-18)
(-4.59587805e-17 4.84270747e-05 -8.56892387e-18)
(-5.75029473e-17 6.05907232e-05 -1.06632922e-17)
(-7.13830689e-17 7.52159844e-05 -1.31483021e-17)
(-8.7848337e-17 9.25653543e-05 -1.60474394e-17)
(-1.07017407e-16 0.000112763778 -1.93537338e-17)
(-1.28889188e-16 0.000135810049 -2.30315237e-17)
(-1.53214142e-16 0.000161441196 -2.69975658e-17)
(-1.79479908e-16 0.000189117338 -3.11256871e-17)
(-2.06765435e-16 0.000217867974 -3.52357622e-17)
(-2.33708236e-16 0.000246257464 -3.91072473e-17)
(-2.58530528e-16 0.000272412576 -4.25033207e-17)
(-2.79217099e-16 0.000294209895 -4.52074348e-17)
(-2.06550315e-19 2.18074529e-07 -3.92583706e-20)
(-6.25280609e-19 6.60144509e-07 -1.18840111e-19)
(-1.07466173e-18 1.1345007e-06 -2.04230997e-19)
(-1.59376759e-18 1.68232119e-06 -3.02840525e-19)
(-2.22472509e-18 2.34798526e-06 -4.2264657e-19)
(-3.01586334e-18 3.18238394e-06 -5.72784217e-19)
(-4.02496556e-18 4.24634558e-06 -7.64147869e-19)
(-5.3227802e-18 5.61434102e-06 -1.01003197e-18)
(-6.99690546e-18 7.37858997e-06 -1.3268251e-18)
(-9.15610818e-18 9.65363242e-06 -1.73475802e-18)