/*--------------------------------*- C++ -*----------------------------------*\
| =========                 |                                                 |
| \\      /  F ield         | foam-extend: Open Source CFD                    |
|  \\    /   O peration     | Version:     4.1                                |
|   \\  /    A nd           | Web:         http://www.foam-extend.org         |
|    \\/     M anipulation  |                                                 |
\*---------------------------------------------------------------------------*/
FoamFile
{
    version     2.0;
    format      ascii;
    class       surfaceScalarField;
    location    "0.6";
    object      meshPhi;
}
// * * * * * * * * * * * * * * * * * * * * * * * * * * * * * * * * * * * * * //

dimensions      [0 3 -1 0 0 0 0];

internalField   nonuniform List<scalar> 
102656
(
-1.1564827e-20
2.67147516e-13
-5.7824135e-21
-2.31296619e-20
8.06933634e-13
-9.3320449e-29
1.15648352e-20
1.36784129e-12
0
-4.62593592e-20
1.97233212e-12
-5.78242592e-21
-2.31296886e-20
2.64493611e-12
-5.7824305e-21
4.62594028e-20
3.41010884e-12
-3.94373056e-28
0
4.29245651e-12
-5.78244279e-21
-2.7142806e-27
5.31677478e-12
-1.15649005e-20
4.62595039e-20
6.50787008e-12
-5.7824589e-21
-4.62595358e-20
7.89013613e-12
5.78246804e-21
-4.78397788e-27
9.48686305e-12
5.78247947e-21
-5.68844719e-27
1.13192663e-11
-5.78249389e-21
9.25194296e-20
1.34052383e-11
0
-9.25195587e-20
1.57578456e-11
1.82236698e-27
-9.25197351e-20
1.83836254e-11
5.78254313e-21
0
2.12807671e-11
0
-2.41272116e-26
2.44373024e-11
-5.78258928e-21
2.73676444e-26
2.78294657e-11
5.78261073e-21
-1.85040979e-19
3.1420414e-11
-5.78264006e-21
3.42863688e-26
3.51595137e-11
5.78266725e-21
-1.85041892e-19
3.8982398e-11
-5.78269506e-21
-9.25211455e-20
4.28119646e-11
-5.78271796e-21
1.85042803e-19
4.6560425e-11
-5.38463082e-27
9.25216506e-20
5.01324234e-11
-5.78277036e-21
0
5.34291294e-11
-5.78279396e-21
-1.06784859e-25
5.63530901e-11
-5.7828214e-21
-1.85044143e-19
5.88135189e-11
-1.15656718e-20
6.07316326e-11
5.78284623e-21
0
-5.78241357e-21
5.39868289e-13
-5.78241357e-21
0
1.63055773e-12
0
1.15648353e-20
2.76379489e-12
-5.78242173e-21
4.62593595e-20
3.98539222e-12
5.78242598e-21
2.31296916e-20
5.34545528e-12
0
9.02676153e-28
6.89395832e-12
5.7824365e-21
0
8.68124503e-12
0
-4.62594674e-20
1.07581411e-11
-6.29284394e-28
0
1.31756186e-11
-5.78246006e-21
-4.62595463e-20
1.59839552e-11
5.7824695e-21
0
1.92313408e-11
5.78248131e-21
4.62596549e-20
2.29619022e-11
-1.34645025e-27
-9.25194417e-20
2.72131466e-11
-5.78251039e-21
-9.25195901e-20
3.20128681e-11
-1.87986462e-27
9.2519774e-20
3.73756216e-11
5.78254749e-21
0
4.32989358e-11
-5.78257169e-21
-9.25201585e-20
4.97595203e-11
-5.78259572e-21
-9.2520344e-20
5.67097954e-11
-5.7826216e-21
-9.25205657e-20
6.40751432e-11
-3.77646169e-27
-9.2520795e-20
7.17523136e-11
0
-9.25210672e-20
7.96094192e-11
-4.69844316e-27
-4.31997353e-26
8.74878872e-11
-5.78273132e-21
4.68137973e-26
9.52066144e-11
-5.78276537e-21
9.25217431e-20
1.02568378e-10
5.78278687e-21
0
1.09368313e-10
0
-1.11940172e-25
1.15404015e-10
-5.78284106e-21
0
1.20486567e-10
-7.13237895e-27
1.24451654e-10
5.78286766e-21
3.70089135e-19
1.15648273e-20
8.28308284e-13
5.78241365e-21
-2.31296633e-20
2.50167202e-12
-5.78241792e-21
-4.13655976e-28
4.2406808e-12
0
0
6.11683071e-12
0
-2.31296921e-20
8.20848957e-12
5.78243206e-21
-2.31297057e-20
1.05939607e-11
0
0
1.33523598e-11
0
0
1.65638755e-11
-6.71422913e-28
3.63124961e-27
2.03093198e-11
0
-4.62595696e-20
2.46688751e-11
0
5.30000283e-27
2.97199558e-11
0
4.62596844e-20
3.55341293e-11
-5.782503e-21
9.25195296e-20
4.21730843e-11
5.78251863e-21
-9.2519697e-20
4.96837038e-11
0
-9.25198634e-20
5.80923911e-11
-5.78256223e-21
9.25200907e-20
6.73989136e-11
-5.78258684e-21
-2.75203695e-26
7.7570159e-11
5.78261061e-21
1.85041084e-19
8.85343313e-11
5.78263934e-21
9.25208137e-20
1.00176233e-10
5.78266996e-21
1.85042159e-19
1.12334357e-10
-1.15654088e-20
-9.25212623e-20
1.24800506e-10
-5.22626926e-27
-9.252162e-20
1.37322607e-10
-5.76329725e-27
-9.25218298e-20
1.49611138e-10
6.2917869e-27
-5.63487169e-26
1.61349313e-10
0
-1.85044589e-19
1.72206765e-10
-5.7828614e-21
-1.85044974e-19
1.81855979e-10
-7.68505213e-27
1.31145555e-25
1.8999035e-10
-5.78291717e-21
1.96342393e-10
5.78292623e-21
0
-5.78241385e-21
1.1447676e-12
0
0
3.45770127e-12
0
4.62593494e-20
5.86289807e-12
1.15648466e-20
-2.3129686e-20
8.46163611e-12
5.78242863e-21
2.31296985e-20
1.13652192e-11
0
2.31297131e-20
1.46852263e-11
5.78244085e-21
0
1.85349319e-11
0
0
2.30298397e-11
1.15649157e-20
4.06876849e-27
2.82871909e-11
5.78246867e-21
4.62596093e-20
3.44243054e-11
5.78248139e-21
5.99337407e-27
4.15556229e-11
5.78249627e-21
-4.6259745e-20
4.97883442e-11
1.15650272e-20
0
5.92166274e-11
-5.78253552e-21
0
6.99143912e-11
-5.7825587e-21
0
8.1926911e-11
-2.75642008e-27
-9.25203298e-20
9.52615641e-11
0
0
1.09878286e-10
5.78264282e-21
9.2520893e-20
1.25680509e-10
-4.29588972e-27
0
1.42507546e-10
5.78271459e-21
0
1.6012955e-10
-5.78275924e-21
1.85043724e-19
1.78246178e-10
-6.18089753e-27
0
1.96490043e-10
-5.78284201e-21
9.25224583e-20
2.14435698e-10
-5.78288318e-21
0
2.3161448e-10
0
0
2.47534868e-10
-8.71156184e-27
0
2.61707301e-10
-9.23466427e-27
-1.85047113e-19
2.73671693e-10
0
2.83025302e-10
5.78303225e-21
0
5.78241418e-21
1.5014428e-12
-5.78241418e-21
0
4.53575619e-12
0
1.15648391e-20
7.69435328e-12
0
-2.31296912e-20
1.11142524e-11
-5.78243087e-21
-2.31297037e-20
1.49464734e-11
5.78243721e-21
-2.31297237e-20
1.93431025e-11
-5.78244599e-21
0
2.44595091e-11
0
-4.62595323e-20
3.04553445e-11
-8.58746501e-28
-4.62595839e-20
3.74941281e-11
0
4.62596551e-20
4.57412071e-11
-5.78249256e-21
-4.62597263e-20
5.53598843e-11
5.78251036e-21
9.25196322e-20
6.65055367e-11
5.78253314e-21
9.25198401e-20
7.93176135e-11
-1.15651132e-20
0
9.39095316e-11
-5.78258608e-21
-9.25203766e-20
1.10356667e-10
-1.15652334e-20
-9.25206835e-20
1.28682897e-10
-3.86511799e-27
0
1.48846432e-10
-5.78269503e-21
4.46052542e-26
1.70726043e-10
-5.20943639e-27
9.25218367e-20
1.94109056e-10
0
-1.85044286e-19
2.18682813e-10
1.15656684e-20
9.2522628e-20
2.44031362e-10
5.7828826e-21
7.10944517e-26
2.69639082e-10
0
-9.25234026e-20
2.94902564e-10
0
-8.41766401e-26
3.19151378e-10
5.78303843e-21
0
3.41677417e-10
0
0
3.61771312e-10
5.78312818e-21
0
3.78763311e-10
5.78317636e-21
3.92065015e-10
-1.261025e-26
1.85049858e-19
5.78241456e-21
1.91057925e-12
1.15648291e-20
-1.1564835e-20
5.77312258e-12
5.78242044e-21
-1.15648414e-20
9.79937611e-12
1.15648535e-20
-2.31296973e-20
1.41700708e-11
5.78243345e-21
2.31297161e-20
1.90850277e-11
-4.78616504e-28
-1.40812316e-27
2.47466107e-11
-5.78245087e-21
-4.62595136e-20
3.13630972e-11
-5.78246178e-21
0
3.91504361e-11
-5.78247481e-21
-4.62596363e-20
4.8332102e-11
5.78248913e-21
-4.62597159e-20
5.91367454e-11
0
-4.62598186e-20
7.17933179e-11
0
9.25198525e-20
8.65233764e-11
-5.78255715e-21
0
1.03530336e-10
-2.80015849e-27
2.93113561e-26
1.22985594e-10
-5.78262305e-21
-9.2520775e-20
1.45011714e-10
0
0
1.69663178e-10
-4.73929708e-27
-9.25215993e-20
1.96905691e-10
0
-1.85044039e-19
2.26595502e-10
-5.78281805e-21
1.85045238e-19
2.58460734e-10
5.78287235e-21
-9.25229848e-20
2.92087177e-10
5.78293721e-21
9.2523691e-20
3.26911279e-10
5.7830051e-21
9.25243499e-20
3.62223022e-10
0
0
3.97180929e-10
0
-9.25252484e-20
4.30840464e-10
5.78321152e-21
0
4.6219565e-10
5.78327478e-21
-1.85052563e-19
4.90231909e-10
0
0
5.13986251e-10
0
5.32609352e-10
1.15668528e-20
0
-5.78241509e-21
2.38453611e-12
-5.78241503e-21
0
7.20748514e-12
-5.78242218e-21
2.31296888e-20
1.22431807e-11
0
0
1.77262477e-11
5.78243703e-21
4.62594519e-20
2.39169612e-11
-5.58804549e-28
-2.31297487e-20
3.10806114e-11
0
0
3.94925277e-11
-9.40154254e-28
-9.25192527e-20
4.94410179e-11
-5.7824876e-21
6.62406321e-27
6.12278099e-11
5.78250386e-21
4.62598086e-20
7.51655343e-11
-5.78252814e-21
-9.25198446e-20
9.15718046e-11
5.78255313e-21
9.25201238e-20
1.10759401e-10
5.78258504e-21
9.25204666e-20
1.33022121e-10
-1.15652488e-20
-9.25208508e-20
1.58616041e-10
-5.78267075e-21
0
1.87736279e-10
-5.78272238e-21
9.25217944e-20
2.20489814e-10
5.78277548e-21
9.25223564e-20
2.56865547e-10
0
-9.25229067e-20
2.96703566e-10
-8.10787357e-27
9.25236491e-20
3.39666369e-10
0
9.25244572e-20
3.85215638e-10
-5.78308932e-21
-9.25250085e-20
4.32598657e-10
0
0
4.80848677e-10
-5.78327497e-21
-1.85052997e-19
5.28802944e-10
5.78335438e-21
-9.25273498e-20
5.75140824e-10
0
0
6.18442275e-10
0
0
6.57264101e-10
5.78360813e-21
3.70116031e-19
6.90228363e-10
-2.03820886e-26
7.16114642e-10
-2.12220624e-26
1.85058905e-19
-6.37455166e-29
2.93573786e-12
-6.37455166e-29
1.15648392e-20
8.87682682e-12
-5.78242373e-21
-2.31296963e-20
1.50917944e-11
-5.7824323e-21
-4.62594326e-20
2.18817415e-11
0
4.62594827e-20
2.95819172e-11
0
1.95026823e-27
3.85364966e-11
0
0
4.9105876e-11
1.15649619e-20
4.62596839e-20
6.1671447e-11
-1.15649996e-20
7.93465242e-27
7.66371193e-11
0
4.62599242e-20
9.44268958e-11
5.78255166e-21
0
1.15477967e-10
5.78258268e-21
-9.25204613e-20
1.40228517e-10
0
9.25208933e-20
1.69099442e-10
-5.78267401e-21
4.44535219e-26
2.02469431e-10
-5.07156701e-27
9.25218943e-20
2.40643244e-10
5.78279039e-21
-6.37287431e-26
2.83813725e-10
0
9.25232503e-20
3.32018895e-10
5.78294977e-21
8.82271974e-26
3.85096661e-10
-5.78305486e-21
-9.2524922e-20
4.42640885e-10
5.78314912e-21
-9.25257403e-20
5.03963943e-10
-5.78326215e-21
-9.25269728e-20
5.68071946e-10
0
1.4949514e-25
6.33659331e-10
0
-2.77586543e-19
6.99129021e-10
0
9.25296335e-20
7.62642617e-10
-5.78377651e-21
0
8.22201897e-10
-1.15677662e-20
0
8.7575853e-10
5.78397691e-21
0
9.21343914e-10
-2.67281047e-26
9.572065e-10
-2.7881847e-26
-4.54002692e-25
-7.40997052e-29
3.57647153e-12
0
0
1.08189205e-11
0
1.15648521e-20
1.84113786e-11
5.78243496e-21
0
2.67364642e-11
-5.78244633e-21
1.75956035e-27
3.62221063e-11
-5.78245987e-21
-4.62595796e-20
4.73111715e-11
-5.78247539e-21
0
6.04716065e-11
0
0
7.62041352e-11
-5.78251727e-21
0
9.5045663e-11
5.78254333e-21
-9.25200592e-20
1.17567284e-10
1.15651544e-20
0
1.44366664e-10
-5.78262171e-21
-4.62604453e-20
1.76053384e-10
-5.78267219e-21
0
2.13225802e-10
1.1565455e-20
0
2.5643842e-10
-5.78280425e-21
9.25227614e-20
3.06159145e-10
-1.1565769e-20
9.25235964e-20
3.62716736e-10
0
0
4.26239919e-10
-1.15661837e-20
-1.85050994e-19
4.96591241e-10
-1.28941511e-26
-9.25265183e-20
5.73300641e-10
-5.78334752e-21
0
6.55505935e-10
-5.78349715e-21
-9.25293761e-20
7.41909405e-10
5.78365691e-21
-9.25307519e-20
8.30760878e-10
5.78382362e-21
3.70128308e-19
9.19877515e-10
0
-1.85066227e-19
1.00670828e-09
5.78416013e-21
1.85068917e-19
1.08844659e-09
-5.78438063e-21
-1.85071639e-19
1.16218768e-09
5.78446367e-21
0
1.22511947e-09
1.15692111e-20
1.27472743e-09
-3.67207338e-26
0
5.7824169e-21
4.31841396e-12
-5.7824169e-21
0
1.30702526e-11
0
2.31297135e-20
2.22669027e-11
-4.45884524e-28
-2.31297425e-20
3.23894803e-11
5.78245204e-21
-9.25190971e-20
4.39798546e-11
0
2.31298163e-20
5.76040912e-11
0
-4.6259725e-20
7.38650918e-11
-1.15650164e-20
4.62598458e-20
9.34155921e-11
1.15650695e-20
1.1341932e-26
1.16964773e-10
0
-9.2520355e-20
1.45276742e-10
-1.73478362e-20
0
1.79162993e-10
0
-4.62606712e-20
2.19465602e-10
5.7827224e-21
0
2.67028622e-10
-5.78279683e-21
-9.25227655e-20
3.22656109e-10
5.78288578e-21
-9.25237573e-20
3.87055301e-10
-5.78300966e-21
0
4.60764784e-10
0
9.25259429e-20
5.4406898e-10
0
-9.25273095e-20
6.36902541e-10
-1.62267538e-26
1.85057981e-19
7.38750906e-10
0
9.25306658e-20
8.48556956e-10
5.7837946e-21
0
9.64647224e-10
5.78400731e-21
9.25342997e-20
1.08469365e-09
5.78423082e-21
-2.79293209e-25
1.20572746e-09
-3.30580412e-26
-9.25379876e-20
1.32421918e-09
-5.78472305e-21
0
1.43623254e-09
5.78490323e-21
-1.85082422e-19
1.53764965e-09
5.7851015e-21
-3.70169134e-19
1.62445154e-09
0
1.69302494e-09
-4.83753674e-26
-7.89047979e-25
-1.15648355e-20
5.17094918e-12
-5.78241779e-21
-1.15648485e-20
1.56633786e-11
5.78243014e-21
-1.1564862e-20
2.67203039e-11
-5.15027977e-28
-1.77359153e-27
3.89363127e-11
-7.571296e-28
2.39601404e-27
5.2993407e-11
1.15649532e-20
6.93895318e-20
6.96121419e-11
5.78249891e-21
0
8.95622205e-11
-1.81534516e-27
-1.0550867e-26
1.13688251e-10
0
-4.62601261e-20
1.42921787e-10
5.78259739e-21
1.7068134e-26
1.78278035e-10
5.78265166e-21
4.62606454e-20
2.20850834e-10
0
0
2.71794921e-10
0
9.25227972e-20
3.32291315e-10
0
0
4.03494579e-10
5.78299055e-21
0
4.86458369e-10
-5.78313507e-21
0
5.82038496e-10
-1.40250904e-26
0
6.90774267e-10
-1.1566959e-20
9.25299068e-20
8.12751955e-10
-5.78369169e-21
-9.25315412e-20
9.47457576e-10
0
9.25339663e-20
1.09363236e-09
-5.78422405e-21
-1.85072122e-19
1.24915036e-09
5.78444984e-21
9.25388287e-20
1.41094245e-09
0
1.85081983e-19
1.57499334e-09
-1.15701569e-20
4.01059582e-25
1.73643571e-09
5.78536475e-21
3.70184656e-19
1.88975743e-09
5.78566065e-21
0
2.02912201e-09
-5.68379099e-26
0
2.14878138e-09
0
2.24353665e-09
-5.78635534e-21
0
0
6.14977058e-12
5.78241859e-21
-1.15648522e-20
1.8636057e-11
0
7.18872547e-28
3.18221742e-11
-5.78244869e-21
-2.31297746e-20
4.64519695e-11
5.78246537e-21
2.76814484e-27
6.3385026e-11
0
3.66662268e-27
8.35223578e-11
-5.78251114e-21
9.56798279e-27
1.07830148e-10
-2.11265352e-27
-4.62600582e-20
1.37397247e-10
5.7825813e-21
1.58711807e-26
1.73443682e-10
-3.52980318e-27
9.25211318e-20
2.17307005e-10
-5.78269554e-21
9.25218132e-20
2.70449692e-10
0
0
3.34443144e-10
0
0
4.10925677e-10
-5.78298387e-21
0
5.01538811e-10
0
9.25262692e-20
6.07831048e-10
5.78329505e-21
-9.25281421e-20
7.31128965e-10
-1.72420491e-26
-9.25301805e-20
8.72374699e-10
5.78371257e-21
9.253252e-20
1.03193399e-09
-5.78403254e-21
0
1.20938086e-09
1.15686367e-20
0
1.40327667e-09
0
-2.77622989e-19
1.61097126e-09
5.78500372e-21
9.25445652e-20
1.82846245e-09
5.785451e-21
1.85096411e-19
2.05035582e-09
5.78581703e-21
0
2.26996555e-09
5.78623366e-21
3.70216971e-19
2.47958741e-09
-6.82127933e-26
-1.85113555e-19
2.67095168e-09
-7.42264655e-26
1.85119587e-19
2.83583028e-09
5.78733319e-21
2.96673154e-09
-5.78775934e-21
1.85121839e-19
-1.28584757e-28
7.26163185e-12
5.78241954e-21
-2.31297121e-20
2.20094585e-11
-3.90127925e-28
-1.15648737e-20
3.76164053e-11
5.78245305e-21
-4.62595829e-20
5.50129664e-11
5.78247285e-21
0
7.52616314e-11
-5.78249796e-21
-4.6259814e-20
9.94744755e-11
0
0
1.28877562e-10
5.78256225e-21
-4.62601969e-20
1.64876585e-10
0
4.62604599e-20
2.09032964e-10
5.7826664e-21
2.37979884e-26
2.63082933e-10
-1.1565484e-20
-4.62611722e-20
3.28977482e-10
-6.76863533e-27
0
4.08839149e-10
-5.78295303e-21
9.25245913e-20
5.04918967e-10
5.78308485e-21
9.25262241e-20
6.1952759e-10
5.78327043e-21
-9.25280773e-20
7.5491104e-10
-1.70095409e-26
0
9.13082541e-10
0
1.85065543e-19
1.09560254e-09
0
2.74989175e-25
1.30331509e-09
-5.78438721e-21
3.29445802e-25
1.53603684e-09
5.7847518e-21
-1.8508552e-19
1.79222353e-09
0
9.25477845e-20
2.06865305e-09
-5.78569036e-21
5.27239698e-25
2.36017761e-09
-1.15725642e-20
9.25569572e-20
2.65961018e-09
-5.78684645e-21
1.85121174e-19
2.95781287e-09
-7.95483257e-26
1.85129072e-19
3.24404455e-09
-8.84081165e-26
1.85136815e-19
3.50659451e-09
5.78839738e-21
1.85143327e-19
3.73367408e-09
-5.78884285e-21
3.91446846e-09
-5.78930977e-21
3.70298292e-19
0
8.50596501e-12
0
-5.87250113e-28
2.57927416e-11
5.78243866e-21
0
4.41344058e-11
5.78245748e-21
0
6.46685173e-11
5.78248069e-21
2.31298719e-20
8.86898702e-11
5.7825077e-21
2.31299429e-20
1.17581722e-10
-5.78254329e-21
0
1.52898463e-10
0
0
1.96406206e-10
0
-4.62606216e-20
2.50094045e-10
0
-9.25219909e-20
3.162412e-10
-6.14765958e-27
0
3.97396756e-10
-5.78290161e-21
-9.25242098e-20
4.96371799e-10
5.78304869e-21
-1.85051557e-19
6.16249663e-10
-1.15664311e-20
-9.25277249e-20
7.60251921e-10
5.78341971e-21
0
9.31594018e-10
-5.78367736e-21
0
1.13327481e-09
0
-9.253608e-20
1.36777808e-09
-5.78439299e-21
-9.25395862e-20
1.63672691e-09
-5.78483874e-21
9.25443475e-20
1.94043849e-09
5.78535546e-21
0
2.27742724e-09
-5.78594357e-21
5.75909031e-25
2.64390874e-09
0
9.25607401e-20
3.03337792e-09
5.78723393e-21
0
3.43636089e-09
5.78797556e-21
-9.25730695e-20
3.84044868e-09
0
0
4.23071696e-09
-5.78947902e-21
0
4.5905978e-09
-5.79030146e-21
1.85177925e-19
4.90318498e-09
0
5.15283331e-09
0
0
1.15648429e-20
9.88721142e-12
-1.59738732e-28
1.15648629e-20
2.9996159e-11
5.78244215e-21
1.02448393e-27
5.13858874e-11
0
0
7.54323061e-11
-5.78248862e-21
-2.31298951e-20
1.03711401e-10
0
0
1.37934269e-10
-5.78255963e-21
0
1.80028867e-10
-5.7826121e-21
-1.88009499e-26
2.32192385e-10
5.78266782e-21
0
2.96967607e-10
0
-4.6261269e-20
3.77285093e-10
-1.15657117e-20
-4.12344634e-26
4.76457198e-10
-9.14320033e-27
9.25252066e-20
5.98246156e-10
-5.78315313e-21
0
7.46766095e-10
-5.78336168e-21
9.25290667e-20
9.26401311e-10
-1.92148831e-26
0
1.14174434e-09
-2.4303513e-26
-9.25356732e-20
1.39719186e-09
0
-9.2539793e-20
1.69656353e-09
-5.78476703e-21
4.14297462e-25
2.04270674e-09
-5.78536692e-21
1.85100648e-19
2.43685202e-09
-5.74093465e-26
0
2.87788295e-09
-5.78678233e-21
0
3.36157595e-09
5.78755236e-21
0
3.87990189e-09
-5.78847524e-21
0
4.42054371e-09
-1.13819003e-25
-1.85176673e-19
4.9667929e-09
-1.30259717e-25
3.70383186e-19
5.49800856e-09
0
-3.7041254e-19
5.99078563e-09
0
1.85220191e-19
6.42085364e-09
0
6.76551879e-09
-1.15881118e-20
1.85226693e-19
0
1.14024071e-11
0
0
3.46107117e-11
-5.78244514e-21
-1.12737309e-27
5.93593921e-11
5.78246865e-21
0
8.72995923e-11
-1.15649944e-20
4.45389474e-27
1.20332648e-10
0
-4.62600421e-20
1.60542477e-10
-5.78257605e-21
4.62602989e-20
2.10294885e-10
-5.78263179e-21
-4.62606229e-20
2.7232759e-10
-5.78270363e-21
4.62610407e-20
3.49840699e-10
0
-9.25231182e-20
4.46543174e-10
-5.78291566e-21
4.62622657e-20
5.66744063e-10
-5.78306878e-21
0
7.15366976e-10
-5.78326416e-21
9.25283317e-20
8.97860834e-10
5.78349404e-21
1.8506232e-19
1.1202493e-09
-5.78382278e-21
2.55995431e-25
1.38891393e-09
-5.78418236e-21
0
1.71009957e-09
5.78465327e-21
0
2.08956119e-09
0
-9.25491317e-20
2.53203005e-09
-5.78603006e-21
0
3.04028859e-09
5.78673419e-21
1.49396248e-24
3.61412681e-09
-8.51452999e-26
8.95468707e-25
4.24920839e-09
5.78876962e-21
0
4.93593777e-09
-5.79009787e-21
-1.85191043e-19
5.65859207e-09
0
-2.77820621e-19
6.39492799e-09
-5.79280599e-21
0
7.116581e-09
1.15880097e-20
0
7.79056293e-09
5.79530273e-21
-1.85270444e-19
8.38199154e-09
0
8.85783212e-09
0
-1.85287442e-19
0
1.30429154e-11
-5.78242333e-21
-1.1564872e-20
3.96105911e-11
5.78244737e-21
3.46946981e-20
6.80126606e-11
5.78247352e-21
-3.52417501e-27
1.00211797e-10
-5.7825055e-21
2.31299576e-20
1.3847923e-10
-5.78254359e-21
4.62601026e-20
1.85325659e-10
-5.78259189e-21
-1.76515567e-26
2.43628724e-10
-5.78265413e-21
4.62607451e-20
3.16755735e-10
1.15654595e-20
9.25224547e-20
4.08682331e-10
6.80493074e-27
4.62618586e-20
5.24098218e-10
0
5.33864784e-26
6.68510207e-10
-1.17690745e-26
9.25272724e-20
8.48249176e-10
0
0
1.07052878e-09
5.78366859e-21
0
1.34353158e-09
5.78403705e-21
9.25370739e-20
1.6760045e-09
-3.32015167e-26
0
2.07659986e-09
-5.78503713e-21
-9.25487451e-20
2.5537237e-09
0
9.25563171e-20
3.11497633e-09
-5.7866548e-21
-9.2563842e-20
3.76564062e-09
5.78760731e-21
9.25758567e-20
4.50728149e-09
-5.78891242e-21
2.77762569e-19
5.33612343e-09
0
9.25999705e-20
6.24121518e-09
-5.79176086e-21
2.7784566e-19
7.20298145e-09
0
1.85259701e-19
8.19227022e-09
0
1.85291218e-19
9.17045598e-09
5.79712277e-21
0
1.00912094e-08
0
0
1.09043356e-08
-2.91704626e-25
1.15615133e-08
-3.12675953e-25
-1.85361194e-19
5.78242412e-21
1.47937627e-11
-5.78242452e-21
0
4.49506262e-11
-5.78245042e-21
-1.15649043e-20
7.72693148e-11
-5.78247891e-21
2.31298806e-20
1.14059032e-10
-5.78251231e-21
5.24851209e-27
1.58004853e-10
0
2.31300954e-20
2.12099727e-10
0
0
2.79807291e-10
-5.78267903e-21
-4.62609065e-20
3.65223696e-10
-1.12104681e-26
-4.62614038e-20
4.73239137e-10
0
4.62621321e-20
6.09694763e-10
1.73490842e-20
-4.62629756e-20
7.81527556e-10
-1.15664555e-20
-4.62642062e-20
9.96876536e-10
-5.78349357e-21
0
1.26515696e-09
-5.78382846e-21
9.25352817e-20
1.59713922e-09
5.78422846e-21
-9.25401519e-20
2.00451852e-09
0
0
2.4994151e-09
-5.78548935e-21
1.85107152e-19
3.09422719e-09
5.78628336e-21
9.25631235e-20
3.80027378e-09
-5.78747889e-21
-9.25725145e-20
4.62637319e-09
-9.95422e-26
9.25864212e-20
5.57749273e-09
0
9.26015169e-20
6.65168986e-09
-5.79198669e-21
9.26201827e-20
7.83729525e-09
5.79402832e-21
-2.77913642e-19
9.11079007e-09
-2.20634694e-25
-9.26546965e-20
1.04348112e-08
5.79847417e-21
0
1.17574551e-08
-5.80124065e-21
1.85396544e-19
1.30140254e-08
0
0
1.41322132e-08
0
1.50408544e-08
-5.80773557e-21
1.85455113e-19
5.78242496e-21
1.66331422e-11
1.15648497e-20
-8.73067136e-28
5.05646727e-11
-1.15649042e-20
3.46947288e-20
8.7016058e-11
-5.78248248e-21
2.31298939e-20
1.28675034e-10
-1.15650341e-20
-2.3129991e-20
1.78681535e-10
5.78255962e-21
-4.62602416e-20
2.40563914e-10
5.7826154e-21
2.05439944e-26
3.18443984e-10
-5.78269275e-21
4.62610289e-20
4.17246273e-10
-5.78279021e-21
4.62616137e-20
5.42914018e-10
-5.78291068e-21
4.91061537e-26
7.02629399e-10
5.78307735e-21
4.62633942e-20
9.0502925e-10
5.78329637e-21
9.25292569e-20
1.16039802e-09
-1.89109708e-26
0
1.48081693e-09
-2.49406938e-26
-1.85074267e-19
1.8802295e-09
-5.78447237e-21
-9.2542548e-20
2.37411475e-09
5.78505924e-21
0
2.97932199e-09
-5.78590481e-21
0
3.71336071e-09
0
8.21999983e-25
4.5928045e-09
0
0
5.63218704e-09
5.78961594e-21
1.8520079e-19
6.84158667e-09
-5.79161205e-21
-1.85236218e-19
8.22263143e-09
5.79366369e-21
9.26418978e-20
9.7646227e-09
5.79621638e-21
9.26642612e-20
1.14408228e-08
-2.69464162e-25
0
1.32049258e-08
5.80225312e-21
6.41022143e-24
1.49885823e-08
-3.73674149e-25
0
1.67022926e-08
-5.80925626e-21
-3.71069517e-19
1.82418473e-08
-5.81232319e-21
1.95014303e-08
-5.81539338e-21
-1.8556597e-19
0
1.85322463e-11
0
-9.02345156e-28
5.63650261e-11
-5.78245377e-21
1.15649146e-20
9.71014133e-11
5.78248378e-21
0
1.43834522e-10
0
4.62600167e-20
2.00194385e-10
0
0
2.70291887e-10
0
9.25212814e-20
3.5897276e-10
4.68708123e-27
-4.62610977e-20
4.72083016e-10
-1.15656214e-20
-4.62617191e-20
6.16751171e-10
-8.53913627e-27
-4.62625434e-20
8.01687068e-10
0
-7.00746817e-26
1.03748943e-09
1.15667364e-20
0
1.3369435e-09
-2.04171727e-26
0
1.71527555e-09
5.78409126e-21
-9.25388063e-20
2.19030486e-09
5.78463289e-21
0
2.78238815e-09
5.78533621e-21
-5.60667861e-25
3.5141772e-09
0
-7.27730801e-25
4.40965252e-09
5.78723798e-21
9.25785545e-20
5.49300199e-09
-5.78885945e-21
9.25940554e-20
6.78716973e-09
0
0
8.30993539e-09
-5.79309867e-21
0
1.00691937e-08
0
-9.26614554e-20
1.20580163e-08
-1.15979422e-20
5.70232336e-24
1.42487875e-08
0
9.273302e-20
1.65871447e-08
5.80663757e-21
0
1.89859439e-08
0
0
2.132334e-08
0
-1.85665782e-19
2.34494157e-08
-6.02246072e-25
2.52047359e-08
0
0
-5.78242535e-21
2.04555194e-11
-5.78242535e-21
-1.15648807e-20
6.22431356e-11
-6.79792949e-28
-1.15649145e-20
1.07336739e-10
0
-4.22769327e-27
1.59254133e-10
5.78252376e-21
5.92503899e-27
2.22141829e-10
5.78256873e-21
2.31301351e-20
3.00730297e-10
0
4.62606702e-20
4.00643127e-10
5.78271004e-21
-3.01645705e-26
5.28727091e-10
-6.55078713e-27
4.62618584e-20
6.93412348e-10
1.15659304e-20
5.49206452e-26
9.05106192e-10
-5.78316445e-21
-9.25278762e-20
1.17661528e-09
0
0
1.52357902e-09
1.15674973e-20
9.25349453e-20
1.96487909e-09
-5.78422858e-21
0
2.52296421e-09
0
9.25474304e-20
3.223997e-09
-5.78562599e-21
9.2556617e-20
4.09770773e-09
0
9.2569268e-20
5.17671892e-09
5.78790589e-21
1.04920415e-24
6.49524294e-09
-5.78970622e-21
0
8.08709309e-09
-1.50333837e-25
9.2627966e-20
9.98210113e-09
5.79419538e-21
2.20419836e-24
1.21996788e-08
5.79767162e-21
1.85381714e-19
1.47403879e-08
5.80131449e-21
-1.85458935e-19
1.75800316e-08
0
1.85549222e-19
2.06612309e-08
5.81159334e-21
0
2.38788799e-08
5.81802448e-21
0
2.70717102e-08
-8.4814931e-21
0
3.00257009e-08
-5.27737698e-21
3.24965175e-08
-1.10743451e-20
1.85909295e-19
-5.78242545e-21
2.23614151e-11
0
-2.31297596e-20
6.8071872e-11
5.78245331e-21
0
1.1750001e-10
-5.78248551e-21
-4.21105809e-27
1.74597725e-10
0
5.91997813e-27
2.44042372e-10
5.7825684e-21
-4.6260322e-20
3.31206783e-10
-3.52455175e-27
0
4.42528679e-10
-5.78271643e-21
9.25223959e-20
5.85912695e-10
5.78282122e-21
-1.3878562e-19
7.71179327e-10
-5.78297769e-21
5.61359383e-26
1.01056932e-09
0
-1.85056048e-19
1.31930358e-09
0
-1.02319881e-25
1.71618588e-09
1.15675829e-20
0
2.22421677e-09
-2.99919433e-26
9.25418138e-20
2.87115958e-09
5.7849461e-21
0
3.68996203e-09
0
-6.56265109e-25
4.71888783e-09
-5.78693282e-21
9.25724204e-20
6.00113937e-09
1.15767287e-20
2.28969963e-24
7.58371018e-09
0
9.26128297e-20
9.51509479e-09
0
-9.26370326e-20
1.18418895e-08
-5.7957327e-21
4.9986439e-24
1.46008924e-08
-5.79988854e-21
-2.78146505e-19
1.78093289e-08
5.80439368e-21
9.27739788e-20
2.14570254e-08
0
-9.28247912e-20
2.5491843e-08
5.81701222e-21
-1.85793519e-19
2.97981105e-08
-1.42790419e-20
-3.71856471e-19
3.41755218e-08
-1.42748971e-20
0
3.83253864e-08
-1.75279811e-20
4.18662591e-08
-1.75502006e-20
1.86184598e-19
-5.78242499e-21
2.4203693e-11
0
-1.15648775e-20
7.37094776e-11
5.78245194e-21
-2.31298223e-20
1.27342632e-10
5.78248205e-21
-4.08999904e-27
1.89486484e-10
5.78251818e-21
2.31300092e-20
2.65348682e-10
0
2.31301493e-20
3.60948878e-10
-3.43962063e-27
0
4.83551689e-10
-4.74423853e-27
4.62611846e-20
6.42145971e-10
0
0
8.47990838e-10
-1.15659326e-20
4.62628633e-20
1.11524373e-09
-1.21054102e-26
7.58875217e-26
1.46167808e-09
-1.64653586e-26
4.62657729e-20
1.90948605e-09
-1.15676151e-20
0
2.4861432e-09
0
-9.25422817e-20
3.22528369e-09
5.78494824e-21
-9.25505008e-20
4.16749334e-09
-5.7858321e-21
2.77682932e-19
5.36086932e-09
5.78700993e-21
9.25749756e-20
6.86111431e-09
-9.94545816e-26
0
8.73084004e-09
5.79076076e-21
1.6051375e-24
1.10376412e-08
-1.76079805e-25
0
1.38504288e-08
1.15938287e-20
-1.85381432e-19
1.72318898e-08
5.80125679e-21
9.2746998e-20
2.12299602e-08
1.16142212e-20
-1.85609892e-19
2.58664018e-08
-2.65572276e-21
9.28846303e-20
3.11137441e-08
-1.10609371e-20
0
3.68676287e-08
-8.41504312e-21
0
4.29089786e-08
-1.75364175e-20
1.86346644e-19
4.8845557e-08
-1.7575121e-20
5.40743618e-08
-2.93528079e-20
-1.86525908e-19
0
2.59332421e-11
0
-1.15648751e-20
7.90051469e-11
-5.7824501e-21
-1.1564906e-20
1.36599225e-10
1.15649568e-20
2.31298851e-20
2.03513835e-10
-1.6222383e-27
5.4509818e-27
2.85469099e-10
-5.78255566e-21
-4.62602389e-20
3.89114246e-10
-1.15652299e-20
-4.62605873e-20
5.22524961e-10
1.1565386e-20
-4.62610994e-20
6.95762134e-10
-1.15656037e-20
4.62617681e-20
9.21519415e-10
0
-4.62626247e-20
1.215883e-09
-5.78314423e-21
-4.62639172e-20
1.5992209e-09
0
-9.25311005e-20
2.09720869e-09
0
0
2.74198255e-09
5.78424427e-21
-9.25419439e-20
3.57338375e-09
5.78490505e-21
0
4.64021906e-09
-5.78585231e-21
0
6.00140113e-09
-7.40763714e-26
9.2576492e-20
7.72674971e-09
5.78861184e-21
9.25977348e-20
9.89712839e-09
5.79090022e-21
1.85244381e-19
1.26034665e-08
5.79362715e-21
-9.26535363e-20
1.59440817e-08
5.7974079e-21
9.27038392e-20
2.00195305e-08
1.16047577e-20
9.27675389e-20
2.49250685e-08
-4.27332741e-25
5.12370647e-24
3.07397468e-08
-5.81857855e-21
-9.29405087e-20
3.75058177e-08
-1.74864381e-20
1.86113917e-19
4.51883447e-08
-1.75274768e-20
0
5.36119152e-08
-1.17187678e-20
-1.86779819e-19
6.23329003e-08
-1.76393955e-20
7.041338e-08
-2.36025022e-20
0
5.7824228e-21
2.75003505e-11
5.7824228e-21
0
8.38060159e-11
0
3.46946927e-20
1.44999986e-10
-5.78247269e-21
0
2.16264551e-10
-5.78250435e-21
-2.31299541e-20
3.03795794e-10
1.15650878e-20
-4.62601576e-20
4.14831348e-10
1.73477932e-20
0
5.5820997e-10
-1.15653385e-20
-9.25218825e-20
7.450081e-10
0
4.62615776e-20
9.89288211e-10
0
4.98440102e-26
1.30899131e-09
0
9.25271935e-20
1.72700204e-09
-5.78334179e-21
9.3714416e-26
2.27240778e-09
-1.15673536e-20
-9.25344802e-20
2.98196083e-09
-1.1568289e-20
-3.50946578e-25
3.90173225e-09
-3.79729234e-26
-9.25482711e-20
5.08891248e-09
-5.78567736e-21
0
6.61366484e-09
-5.78686784e-21
0
8.56087208e-09
-9.64647775e-26
0
1.10315454e-08
1.15812054e-20
0
1.41436159e-08
-1.15872428e-20
0
1.80318507e-08
5.79760723e-21
3.00891492e-24
2.28467915e-08
0
9.27790699e-20
2.87529802e-08
3.19203292e-21
-5.5232318e-24
3.59264756e-08
-2.58579116e-20
9.29913403e-20
4.45502986e-08
-1.74998312e-20
0
5.47908509e-08
-1.75552427e-20
0
6.66947076e-08
-1.76306322e-20
1.87382445e-19
7.99421766e-08
-2.36392639e-20
9.31731153e-08
-1.78402527e-20
-4.69635258e-23
5.7824213e-21
2.88572873e-11
0
-1.15648633e-20
8.79651212e-11
0
2.31297757e-20
1.52284859e-10
5.78246373e-21
2.31298381e-20
2.27336889e-10
5.78249214e-21
2.31299186e-20
3.19737834e-10
-1.84366866e-27
6.04343297e-27
4.37248011e-10
0
9.25206781e-20
5.89387761e-10
-3.60565637e-27
0
7.8814575e-10
5.78272061e-21
-4.62612705e-20
1.04882127e-09
5.78284497e-21
0
1.39104191e-09
-5.7830089e-21
-4.62630439e-20
1.83999666e-09
-5.78323415e-21
4.62645372e-20
2.42792145e-09
5.78352563e-21
0
3.19586738e-09
0
0
4.1957698e-09
-3.40049234e-26
0
5.49281565e-09
-1.1570656e-20
1.85110678e-19
7.16807914e-09
-5.78638268e-21
9.25689875e-20
9.32137188e-09
-5.78794676e-21
9.25887988e-20
1.20742702e-08
-1.20589277e-25
0
1.55734182e-08
-5.79281826e-21
0
1.9994612e-08
-2.26989879e-25
1.853991e-19
2.55490662e-08
-8.44338944e-21
2.78311768e-19
3.24948498e-08
-1.42196046e-20
-9.2868863e-20
4.11583573e-08
-2.32804534e-20
-1.86045524e-19
5.19707377e-08
-1.75079751e-20
0
6.55158136e-08
-2.93005024e-20
0
8.25118785e-08
-1.17941572e-20
0
1.03312161e-07
-1.19036659e-20
1.26098222e-07
-1.80604535e-20
-1.89394755e-19
-1.27643302e-28
2.99610074e-11
5.78241949e-21
-1.15648558e-20
9.13497598e-11
5.78243542e-21
-1.15648755e-20
1.58218451e-10
-5.78245474e-21
2.31297978e-20
2.36366018e-10
5.78247727e-21
3.53522802e-27
3.32756491e-10
5.7825048e-21
-4.94682925e-27
4.5558391e-10
0
0
6.14936649e-10
-2.95468375e-27
0
8.23566935e-10
5.78266532e-21
4.62609745e-20
1.097814e-09
-5.78276824e-21
-3.63243516e-26
1.45873032e-09
0
9.25248484e-20
1.93346186e-09
-1.08090853e-26
4.62635798e-20
2.5569339e-09
-1.4920062e-26
0
3.37389369e-09
-5.78370741e-21
-9.25351652e-20
4.44135813e-09
-1.15683698e-20
3.63270241e-25
5.83150945e-09
-1.15697535e-20
1.85099713e-19
7.63508198e-09
-5.78581059e-21
-6.90677716e-25
9.96531619e-09
5.78702396e-21
9.25776251e-20
1.29626977e-08
-5.7888779e-21