/*--------------------------------*- C++ -*----------------------------------*\
| =========                 |                                                 |
| \\      /  F ield         | foam-extend: Open Source CFD                    |
|  \\    /   O peration     | Version:     4.1                                |
|   \\  /    A nd           | Web:         http://www.foam-extend.org         |
|    \\/     M anipulation  |                                                 |
\*---------------------------------------------------------------------------*/
FoamFile
{
    version     2.0;
    format      ascii;
    class       volScalarField;
    location    "0.6";
    object      p;
}
// * * * * * * * * * * * * * * * * * * * * * * * * * * * * * * * * * * * * * //

dimensions      [0 2 -2 0 0 0 0];

internalField   nonuniform List<scalar> 
35840
(
79.3696991
64.7253986
55.6604182
51.3400595
48.3891707
46.0498288
44.2097885
42.6948426
41.3689728
40.1619074
39.036272
37.9691525
36.9458728
35.956754
34.995002
34.0555352
33.1343872
32.2283774
31.3349268
30.4519436
29.5777373
28.7109644
27.850586
26.995832
26.1461705
25.3012802
24.4610237
23.6254216
72.4896978
62.0839627
54.8983831
51.1185159
48.3495444
46.0670367
44.2469813
42.7421452
41.4182707
40.2082073
39.0779607
38.0059896
36.9780325
35.9846056
35.018998
34.0761278
33.1519893
32.2433629
31.3476323
30.46266
29.5867164
28.7184286
27.8567369
27.0008544
26.1502365
25.3045518
24.4636552
23.6275599
69.2991018
60.534965
54.1810928
50.6793527
48.0948068
45.9380654
44.1901714
42.728109
41.4297008
40.2337253
39.1106556
38.0418045
37.0145739
36.0205115
35.0535302
34.1088929
33.1827741
32.2720434
31.3741252
30.4869082
29.6086796
28.7380771
27.8740517
27.0158323
26.1628949
25.3149328
24.471829
23.6336268
67.6821126
59.3466567
53.4483372
50.2218844
47.8292873
45.8115796
44.1517243
42.7419169
41.4736796
40.2938276
39.1781113
38.1114139
37.0833872
36.0869511
35.116822
34.1686938
33.2389461
32.3245261
31.4228732
30.5318634
29.6497653
28.7752058
27.9071342
27.0447902
26.1876746
25.3355193
24.4882566
23.6459883
66.5815078
58.3787485
52.7740705
49.7897375
47.5678599
45.6784494
44.1100075
42.7600363
41.5289531
40.3708993
39.266749
38.2049988
37.1777833
36.179659
35.2063812
34.2542715
33.3200643
32.4008895
31.4942667
30.5980959
29.7106453
28.830539
27.9567288
27.0884715
26.2253029
25.3670091
24.5135944
23.6652472
65.7839537
57.6522004
52.2182508
49.3981547
47.3065914
45.524437
44.0407833
42.7526294
41.5643554
40.4349249
39.3490696
38.2982366
37.2767826
36.2808695
35.3073678
34.35335
33.4160396
32.4928729
31.581554
30.6800882
29.7868089
28.9003846
28.019807
27.1443828
26.2737153
25.4076784
24.5463855
23.6901523
65.1848945
57.0941012
51.7589203
49.0478171
47.0545756
45.3591205
43.9483716
42.7176187
41.57263
40.474987
39.4118813
38.376832
37.3658801
36.3764916
35.4065074
34.453702
33.5157949
32.590565
31.6759469
30.7701015
29.8714733
28.9788136
28.0911924
27.208004
26.328957
25.4540546
24.5835649
23.7179818
64.7186042
56.6521332
51.3780617
48.7411999
46.8214303
45.1943157
43.8437282
42.6631352
41.5584591
40.4924632
39.4537327
38.4371096
37.4397851
36.4601643
35.4968232
34.5480959
33.6121164
32.6869637
31.7707847
30.8618955
29.9588554
29.0605084
28.1660201
27.2748936
26.3869713
25.5024222
24.621715
23.7455758
64.3469255
56.2962608
51.0623347
48.4768947
46.6115899
45.0377665
43.7361158
42.5982643
41.5296915
40.4935055
39.4789687
38.4816959
37.4996082
36.5317368
35.5771688
34.6346389
33.7025854
32.7793097
31.8631186
30.9524442
30.0459299
29.1424981
28.2414014
27.342254
26.4450461
25.5501404
24.6582479
23.7703833
64.0461037
56.0063283
50.7999198
48.2509113
46.4263042
44.8941416
43.6322257
42.5304626
41.4936492
40.4847851
39.4933517
38.515348
37.549112
36.594055
35.6495853
34.7146943
33.788013
32.8679774
31.9529856
31.0415252
30.1322773
29.224205
28.3166203
27.4092339
26.502186
25.5960536
24.6918319
23.7908842
63.8002781
55.7683078
50.5814981
48.0590327
46.2653084
44.7659688
43.5364227
42.4650832
41.4560111
40.4718714
39.5020858
38.5427723
37.5924558
36.6507372
35.7171903
34.7909362
33.8706922
32.9549419
32.0420944
31.1306216
30.2191804
29.3067188
28.3925643
27.4764957
26.5587936
25.6402646
24.7222307
23.8064768
63.5983884
55.5722184
50.399866
47.897286
46.1274292
44.6542527
43.4512821
42.405696
41.4208578
40.4590058
39.5093474
38.5679482
37.6333582
36.7052238
35.7831583
34.8663012
33.9533597
33.0427745
32.1328781
31.2220452
30.3088299
29.3920918
28.4711096
27.5456819
26.6162065
25.6837296
24.7499488
23.8171597
63.4324134
55.4106953
50.2493491
47.7620762
46.0110468
44.5590449
43.3781479
42.3545472
41.3909906
40.4492752
39.5183222
38.5940431
37.6749048
36.7604942
35.8503645
34.9435808
34.0387505
33.1341777
32.2280267
31.3184796
30.4038893
29.4829292
28.5547394
27.6190657
26.6763803
25.7279678
24.7759549
23.8232603
63.2963182
55.2781176
50.1253996
47.6502288
45.9143811
44.4798238
43.3175315
42.3129238
41.3682312
40.4448374
39.5313568
38.6234953
37.71957
36.8190355
35.9213112
35.0253119
34.1294592
33.231831
32.3303237
31.4228158
30.5073374
29.5822482
28.6464242
27.6994489
26.7417934
25.7749614
24.8015631
23.8252827
63.1854079
55.1700611
50.0242983
47.5589509
45.835627
44.4157246
43.2693808
42.2814228
41.353662
40.4471182
39.5501103
38.6581216
37.7692843
36.8828776
35.9981367
35.1137614
34.2279135
33.3383572
32.4426143
31.5381314
30.6224665
29.6934982
28.7496642
27.7902222
26.8155161
25.8272124
24.8284546
23.8238706
63.0959142
55.0829398
49.9429342
47.4857684
45.7730154
44.365679
43.2332609
42.2601405
41.3478024
40.4569619
39.5756736
38.6992045
37.8254945
36.95363
36.0826279
35.2109264
34.3363672
33.4563167
32.5678098
31.6677158
30.7529372
29.8206545
28.8686249
27.8955369
26.9014
25.8879239
24.8588105
23.8198523
63.0247233
55.0137649
49.8786454
47.4284639
45.7248347
44.3284961
43.2084684
42.2487997
41.3507317
40.4747383
39.6086525
38.7475525
37.8892024
37.0324943
36.1762146
35.3185168
34.4568764
33.5881869
32.7088831
31.8150943
30.9028477
29.9683445
29.0083286
28.0205596
27.0043765
25.961298
24.8955493
23.8143471
62.9691925
54.9599807
49.8291033
47.3850211
45.6894325
44.3029068
43.1941034
42.2468334
41.3621708
40.5004121
39.6492232
38.8035388
37.9609751
37.1202517
36.2799406
35.4379093
34.591244
33.7363083
32.86883
31.984025
31.0767876
30.1419843
29.1748913
28.1718119
27.1308768
26.052979
24.9426974
23.8089518
62.9270242
54.9193501
49.7922289
47.35358
45.6652069
44.2875867
43.1891135
42.2534384
41.381535
40.5335908
39.6971693
38.867111
38.040932
37.2172299
36.3944038
35.5700663
34.740923
33.9027807
33.050576
32.1784424
31.2798536
30.3479034
29.3757943
28.3576087
27.2894165
26.1707037
25.0059518
23.8060238
62.8961796
54.8898761
49.7661333
47.3324018
45.6505982
44.2811687
43.1923208
42.2676077
41.4079714
40.5735594
39.7518934
38.9377831
38.1287179
37.3232462
36.5196694
35.7154149
34.9068644
34.0892911
33.2568041
32.4023156
31.517585
30.5934233
29.6201737
28.5886139
27.4914221
26.3252928
25.093589
23.8091344
62.8748199
54.8697476
49.7490764
47.3198449
45.6440812
44.2822517
43.2024372
42.2881616
41.4403922
40.6192944
39.8124181
39.014624
38.2234627
37.4375342
36.6551534
35.8736842
35.0893044
34.2968559
33.4896676
32.6593693
31.7957572
30.8868151
29.9190642
28.8784928
27.752362
26.5322139
25.2181433
23.8242095
62.8612692
54.8573048
49.7394411
47.3143498
45.6441642
44.289401
43.2180919
42.3137783
41.4774892
40.6694755
39.8773937
39.0962423
38.3237377
37.5586579
36.7994855
36.0437014
35.287484
34.5254549
33.7503473
32.9526008
32.1199357
31.2370223
30.2854727
29.2445359
28.0930562
26.81349
25.3985129
23.8610836
62.8539972
54.851017
49.7357186
47.3144339
45.6493826
44.3011772
43.2378607
42.3430069
41.5177558
40.7225114
39.9451104
39.1807795
38.4275176
37.6844315
36.9503645
36.22316
35.4993004
34.7735437
34.0384128
33.2835065
32.4946505
31.652978
30.7341772
29.7083919
28.5416783
27.2006451
25.6620624
23.931998
62.8516208
54.849475
49.7364929
47.3186981
45.6583319
44.3161634
43.2602748
42.3742963
41.5595264
40.7765753
40.0135262
39.2659234
38.5321687
37.8118612
37.1044291
36.4083831
35.720916
35.03745
34.3509477
33.6509029
32.9219495
32.142084
31.2806529
30.2965939
29.1379902
27.7451707
26.0611819
24.0661474
62.852852
54.8513967
49.7404762
47.3258357
45.6696795
44.3329692
43.283854
42.4060444
41.6010274
40.8296581
40.0803217
39.3489572
38.6344791
37.9371392
37.2571845
36.5941332
35.94638
35.310706
34.6814668
34.0492893
33.399081
32.7071392
31.9373026
31.0363578
29.9302359
28.5222895
26.7008468
24.374495
62.8565061
54.8556398
49.74652
47.3346388
45.6821686
44.350266
43.3071577
42.4366527
41.6404418
40.8796468
40.142989
39.4268554
38.7307558
38.055725
37.4030361
36.7735443
36.1673644
35.5834433
35.0187591
34.4668835
33.9155049
33.34231
32.7084558
31.9486328
30.9588269
29.582469
27.6301469
24.8719674
62.8615726
54.8612071
49.7535976
47.3440292
45.6946651
44.3668324
43.3288358
42.4645915
41.6759928
40.9244273
40.1989589
39.4964388
38.8170061
38.1625476
37.5354941
36.9382793
36.3731725
35.8420538
35.3458597
34.8833918
34.4489386
34.0277061
33.5869309
33.0586054
32.3064668
31.0645148
28.9058605
25.0014989
62.8672158
54.8672542
49.7608366
47.3530908
45.7061895
44.3815961
43.3476844
42.4884736
41.7060399
40.9620106
40.2457651
39.5545872
38.8892136
38.2523584
37.6476099
37.0790381
36.5512501
36.069503
35.6396611
35.2677856
34.9589609
34.7144977
34.5252684
34.3562547
34.1093963
33.53258
31.9264966
26.5756171
72.6489302
62.2068425
54.9711649
51.1427032
48.3380448
46.0306992
44.1939777
42.6797565
41.3524988
40.1433749
39.0168575
37.9501924
36.928229
35.9408872
34.9810984
34.0435953
33.1242998
32.2199804
31.3280419
30.4463905
29.5733435
28.707568
27.8480357
26.9939859
26.1448946
25.3004475
24.4605136
23.625119
64.9292025
59.5349559
54.6140853
51.3402503
48.6695369
46.356901
44.4624306
42.8913866
41.5188025
40.2745288
39.1218499
38.0360016
36.9995792
36.0009346
35.0320629
34.0871031
33.1615804
32.2519981
31.3555778
30.4700902
29.5937508
28.7251496
27.8631992
27.0070928
26.1562699
25.3103865
24.4692868
23.6329751
61.6888191
58.1856597
54.1927912
51.1226573
48.5884771
46.3807408
44.5273237
42.9658886
41.5935527
40.345559
39.1875334
38.0962863
37.0549042
36.0517581
35.0787928
34.130081
33.2010731
32.288207
31.3886542
30.5001507
29.6208879
28.7494401
27.8847123
27.0258983
26.1724453
25.3240236
24.4804962
23.6418902
60.1123443
57.0297245
53.5162362
50.726375
48.3814886
46.3142102
44.5447504
43.0264876
41.6752988
40.4357352
39.278526
38.1841728
37.13801
36.1295283
35.1511963
34.1973088
33.263371
32.3457926
31.4416873
30.5487304
29.6650619
28.7892196
27.9200885
27.0568598
26.1989947
25.3461922
24.498357
23.655567
59.0064225
56.0305839
52.8316527
50.3122172
48.1412334
46.197713
44.516768
43.0563017
41.7408127
40.5221019
39.3755733
38.2851849
37.2388436
36.2277505
35.2454349
34.2868243
33.3477772
32.4248778
31.5153108
30.6167677
29.7273821
28.8456815
27.970549
27.1011884
26.2370923
25.3780102
24.5239148
23.6749671
58.1990505
55.2855376
52.2655626
49.924488
47.8839896
46.0425967
44.4436925
43.0441689
41.7715345
40.5822515
39.4551475
38.3766917
37.3368641
36.3284873
35.3462545
34.3858937
33.4437964
32.5168886
31.6025635
30.6986374
29.80332
28.9151924
28.0331856
27.1565592
26.284877
25.4179794
24.5559502
23.6990791
57.5919044
54.7139768
51.7937642
49.5695077
47.6297831
45.8732678
44.3456021
43.0026458
41.773025
40.615879
39.5123301
38.4505896
37.4221184
36.4209802
35.4428314
34.4841135
33.5417354
32.6129882
31.6955168
30.7873097
29.8866983
28.9923595
28.1033121
27.2189107
26.3388312
25.4630487
24.5918068
23.7255772
57.1186347
54.2611422
51.4017628
49.2571607
47.393964
45.7055018
44.2370313
42.9435716
41.7538888
40.6283625
39.5494907
38.5066489
37.4923089
36.5014088
35.5303154
34.5760212
33.6358513
32.7074037
31.7885452
30.8774246
29.972494
29.0725319
28.1766578
27.2843404
26.3953944
25.5099657
24.628503
23.7517153
56.7412775
53.8971129
51.0775689
48.9880032
47.181745
45.5468867
44.1270084
42.8759958
41.7222068
40.626411
39.5718172
38.548518
37.5496442
36.5707214
35.6086117
34.6607016
33.7246176
32.7981816
31.8794215
30.966601
30.0582615
29.1532612
28.2508083
27.3504845
26.4522554
25.5564631
24.6638018
23.7752737
56.4360038
53.6010666
50.8087334
48.7580384
46.9943961
45.4017912
44.0217165
42.8067689
41.684685
40.6161786
39.5847184
38.5807671
37.5978407
36.6318269
35.679903
34.7397104
33.8090678
32.8859325
31.9684209
31.0548529
30.1438088
29.2341868
28.3252538
27.4166875
26.5086035
25.6015611
24.6965421
23.7948979
56.1867224
53.3583987
50.5854026
48.5629838
46.831704
45.2725581
43.9250995
42.740687
41.6463817
40.6026157
39.5928336
38.6076166
37.6406557
36.6880213
35.7470557
34.8155306
33.8913534
32.9725271
32.0571782
31.1436126
30.2303848
29.3163755
28.4008659
27.483602
26.5648398
25.6453676
24.7264941
23.8099955
55.9821537
53.1587347
50.3999808
48.3987206
46.6924391
45.1600314
43.8394496
42.6809621
41.6109759
40.5895438
39.5999268
38.6326591
37.681454
36.7424266
35.8129606
34.8908495
33.9739905
33.0603422
32.1479566
31.2350413
30.3200464
29.4017624
28.4794199
27.5527818
26.6222192
25.6887589
24.7540861
23.8204901
55.8140913
52.9944213
50.2464898
48.2614948
46.5749103
45.0641677
43.7659615
42.6296491
41.581049
40.5798132
39.6089434
38.6588275
37.7230972
36.7978109
35.8802965
34.9682745
34.0595412
33.1519212
32.2432987
31.3316876
30.4153344
29.4928405
28.5632943
27.6264017
26.682605
25.7331671
24.7802016
23.8266231
55.6763518
52.8596273
50.1201611
48.1480066
46.4772824
44.9843941
43.7050711
42.5879383
41.5583103
40.5754597
39.6221049
38.6884361
37.7679395
36.856547
35.9514554
35.0502346
34.1504982
33.2498477
32.3458987
31.4363597
30.5191514
29.5925571
28.655396
27.7072062
26.7484224
25.7805217
24.8060991
23.8288368
55.5641245
52.7497762
50.0171174
48.0553683
46.3977071
44.9198147
43.6566888
42.5563797
41.5437886
40.5778513
39.6410111
38.7232437
37.8178569
36.9206118
36.0285212
35.1389446
34.2492416
33.3567005
32.4585616
31.5520995
30.6347595
29.704339
28.759211
27.7985782
26.8227381
25.8333213
24.8334505
23.8277529
55.4735535
52.6611713
49.9341342
47.9810354
46.3343822
44.8693418
43.6203611
42.5350493
41.5379806
40.5878081
39.6667286
38.7645109
37.8742755
36.9915908
36.113258
35.2363834
34.3580094
33.4750267
32.5841894
31.6821938
30.7658264
29.8321792
28.878934
27.90471
26.9094529
25.8948195
24.8644785
23.8242201
55.4014593
52.5907436
49.8684677
47.9227385
46.2855718
44.8317722
43.5953761
42.5236621
41.5409574
40.6056919
39.699858
38.8130418
37.9381869
37.0706767
36.2070923
35.3442599
34.4788574
33.6073071
32.7257651
31.8301879
30.9164832
29.9807554
29.0196579
28.0308588
27.0136047
25.9693301
24.9022013
23.8194264
55.3451508
52.5358792
49.8177304
47.8784236
46.249605
44.8058281
43.5808299
42.5216491
41.5524394
40.6314702
39.7405782
38.8692042
38.0101551
37.1586536
36.3110717
35.4639538
34.6135951
33.7558945
32.8863059
31.9998749
31.0913745
30.1555648
29.187612
28.1836945
27.1418036
26.0626922
24.9508294
23.8151057
55.3022952
52.4942994
49.7798013
47.8462037
46.224867
44.7901799
43.5756685
42.5282085
41.5718478
40.6647559
39.7886677
38.9329441
38.0903045
37.2558535
36.4257969
35.5964323
34.7636845
33.9229045
33.0687645
32.195235
31.2956702
30.3630501
29.3904419
28.371755
27.3028433
26.1829537
25.0163609
23.8138408
55.2708291
52.4639778
49.7527623
47.824321
46.209789
44.7834572
43.5787152
42.5423413
41.5983353
40.7048269
39.8435268
39.0037806
38.1782824
37.3620949
36.5513351
35.7421274
34.9300847
34.1100395
33.2758526
32.4202891
31.5349999
30.6106801
29.6375117
28.6060316
27.5085782
26.341434
25.1075394
23.8194798
55.248897
52.4430836
49.7348536
47.8111217
46.2028403
44.7842584
43.5886919
42.5628713
41.6308051
40.750656
39.9041829
39.0807833
38.2732182
37.4766107
36.687103
35.9007692
35.1130359
34.3183262
33.5097477
32.6788132
31.8152381
30.9069046
29.9401525
28.9006478
27.7751378
26.5544573
25.2378088
23.8386025
55.2348119
52.4299445
49.7244463
47.8050397
46.2025271
44.7911617
43.6042276
42.5884645
41.667944
40.8009269
39.969285
39.1625586
38.373681
37.5979629
36.8317267
36.0711806
35.3117748
34.547744
33.7716422
32.9738435
32.1420445
31.2608586
30.3117172
29.2734538
28.1241378
26.8450791
25.4272692
23.8823891
55.2270282
52.4230227
49.7200277
47.8045947
46.2073984
44.8027249
43.6238829
42.6176648
41.708248
40.8540461
40.0371205
39.2472452
38.4776417
37.7239595
36.9828961
36.2510423
35.524182
34.7967299
34.0610911
33.3068835
32.5200125
31.6816597
30.7673907
29.7468253
28.584737
27.2455865
25.7025688
23.9598843
55.2241271
52.4209006
49.7201883
47.8083894
46.2160445
44.8175117
43.6461847
42.6489236
41.7500495
40.9081843
40.1056447
39.3325267
38.58246
37.8515969
37.1372349
36.4366549
35.7463872
35.0615659
34.3751213
33.6766912
32.9511621
32.176795
31.323039
30.3483346
29.1990167
27.8115697
26.1194326
24.0962989
55.224836
52.4223005
49.7236375
47.815109
46.2271145
44.8341301
43.6696552
42.6806384
41.7915738
40.9613306
40.1725346
39.4156804
38.6849154
37.9770539
37.2902272
36.6227481
35.972388
35.3357063
34.7071333
34.0776079
33.4325387
32.7488204
31.9907147
31.1047614
30.0153722
28.6213886
26.794384
24.4318808
55.2280306
52.4260934
49.7292173
47.8235432
46.2393547
44.8512557
43.6928571
42.7112116
41.8310033
41.0113693
40.235278
39.4936743
38.7813044
38.0957737
37.4362528
36.8024135
36.1937873
35.6091708
35.045743
34.4976013
33.9532741
33.3914683
32.774018
32.0347996
31.0658679
29.6955403
27.7092035
24.8722538
55.2327231
52.4312864
49.7359039
47.8326209
46.2516364
44.8676713
43.7144427
42.7391143
41.8665601
41.056184
40.2913014
39.563322
38.8676239
38.2026688
37.5687939
36.9672658
36.3998035
35.8682034
35.3737365
34.915997
34.4906153
34.0845851
33.667046
33.1698784
32.4487893
31.1887351
28.8758156
24.4172465
55.2380823
52.43704
49.7428317
47.8414324
46.2629857
44.882309
43.7332113
42.7629606
41.8966034
41.0937839
40.3381347
39.621498
38.9398487
38.2924764
37.6808772
37.1079589
36.5777933
36.0955923
35.6676543
35.3010812
35.0028308
34.777238
34.6202767
34.5046754
34.3411511
33.8595682
32.2871438
25.8881202
69.7317568
60.9233356
54.4855856
50.8812185
48.2047192
45.9719772
44.1636672
42.6575008
41.3301183
40.1174894
38.9870414
37.9173728
36.8936583
35.9057549
34.9463845
34.0100214
33.0923473
32.1899401
31.3000652
30.4205318
29.5495932
28.6858754
27.8283234
26.9761589
26.1288458
25.2860607
24.4476647
23.6136776
61.9755244
58.4708951
54.4500188
51.3259099
48.7312287
46.4681677
44.568509
42.9714438
41.5736111
40.3083845
39.1393814
38.0417664
36.9973344
35.9934643
35.0213694
34.0746003
33.1482418
32.2384801
31.3423175
30.4573772
29.5817748
28.7140321
27.8530138
26.9978785
26.14804
25.3031336
24.4629857
23.6275851
58.7329494
57.2377974
54.2406066
51.3030265
48.8148164
46.6377568
44.7477747
43.1252591
41.7021378
40.4170901
39.2322192
38.1221299
37.0679789
36.0563226
35.07777
34.1254909
33.1943054
32.2802103
31.3800772
30.4914415
29.6123596
28.7413138
27.8771449
27.0189995
26.1662894
25.3186556
24.4759365
23.6381373
57.1769252
56.1151529
53.6329817
50.9955961
48.7004687
46.6632066
44.8469589
43.2505997
41.8329961
40.5447602
39.3521182
38.232514
37.1688864
36.1484354
35.1618856
34.2023718
33.2646145
32.3444778
31.4387015
30.544708
29.6604656
28.7843929
27.9152903
27.0522869
26.1947965
25.3424795
24.4952078
23.6530307
56.0741472
55.113909
52.9651769
50.6229828
48.5090709
46.5935922
44.8612085
43.3157657
41.9267979
40.6539245
39.4680288
38.349503
37.2835289
36.2587726
35.2668253
34.3013457
33.3573628
32.430896
31.5187444
30.618339
29.7276347
28.8450338
27.9693291
27.0996574
26.2354593
25.376442
24.5225423
23.6738895
55.262035
54.3615067
52.4004206
50.2506444
48.2714131
46.4563572
44.80435
43.3178902
41.9692458
40.7236736
39.5558681
38.4485114
37.3886147
36.3663082
35.3742275
34.4067552
33.4594254
32.5285986
31.6112937
30.7050799
29.8080015
28.9185251
28.0355006
27.1581275
26.2859236
25.4186916
24.5564837
23.6995612
54.6481357
53.7808306
51.9216615
49.895926
48.0212821
46.2913854
44.7106531
43.2807483
41.9745719
40.7604673
39.6158134
38.5250409
37.4765485
36.4616406
35.4738501
34.5082113
33.5607361
32.6281345
31.7076749
30.7971036
29.8945958
28.9987238
28.1084355
27.2230346
26.3421594
25.465756
24.5940438
23.7274736
54.1678394
53.318749
51.5205023
49.5785962
47.7836002
46.1225709
44.6014339
43.221539
41.9555516
40.7730892
39.6531327
38.5813525
37.547149
36.5426912
35.5622059
34.6012494
33.6562214
32.7241208
31.8024274
30.8890432
29.9822638
29.0807657
28.1836011
27.2901927
26.4003234
25.5141164
24.6320031
23.7546785
53.7840984
52.9465839
51.187733
49.3032404
47.567287
45.9606696
44.4887003
43.15198
41.9224707
40.7700871
39.6746376
38.6225895
37.6040261
36.6117209
35.640407
34.6860324
33.745288
32.815385
31.8939555
30.9790106
30.0689298
29.1624666
28.2587604
27.3573474
26.4581624
25.5615277
24.6681246
23.7789451
53.4733982
52.6437424
50.9115118
49.067234
47.3752878
45.8116691
44.3801643
43.0802762
41.8831323
40.7584945
39.6864882
38.6540117
37.6515646
36.6723075
35.71131
34.7647847
33.8296159
32.9031469
31.9830944
31.0675208
30.1548397
29.24384
28.3337168
27.4241001
26.5150738
25.6071756
24.7013738
23.7990151
53.2196417
52.3955195
50.6820595
48.8668647
47.208217
45.6786764
44.2804117
43.0117626
41.8430211
40.7435868
39.6935849
38.6800724
37.6937526
36.7279943
35.7780535
34.8402875
33.9116751
32.9896074
32.0718108
31.1563305
30.2415515
29.3262421
28.4096075
27.4913407
26.5716626
25.6513387
24.7316646
23.8144118
53.0114314
52.1913572
50.491654
48.6981299
47.0651108
45.5627865
44.1919402
42.9498312
41.8059637
40.729292
39.6997668
38.7044233
37.7340111
36.7819668
35.8436078
34.9153267
33.9941006
33.0772809
32.1625196
31.2477632
30.3312898
29.411773
28.4883634
27.5607675
26.6293173
25.6950141
24.7595288
23.825147
52.8404145
52.0234015
50.3341174
48.5571988
46.944305
45.4640049
44.1159872
42.8965778
41.7745748
40.7184789
39.7079833
38.729993
37.7751953
36.8369896
35.9106548
34.992524
34.0794824
33.1687514
32.2578171
31.3444307
30.4266648
29.5030014
28.5724441
27.6346376
26.6899804
25.7397057
24.7859105
23.8315061
52.700267
51.8856389
50.2044861
48.4406437
46.8439053
45.3817257
44.0529621
42.8531723
41.750548
40.7131663
39.7204358
38.7590741
37.8196372
36.8954143
35.9815693
35.0742975
34.1703094
33.2666063
32.3604071
31.4491591
30.5306069
29.6029101
28.6647981
27.7157403
26.7561205
25.7873799
24.8120938
23.8339422
52.5860583
51.7733419
50.0987165
48.3454473
46.7619773
45.3149893
44.0027234
42.820125
41.7348824
40.7146975
39.7387014
38.7934031
37.8691907
36.9591973
36.0584181
35.1628484
34.2689497
33.3734159
32.4730936
31.5649968
30.6463917
29.7149462
28.7689353
27.8074838
26.8308271
25.8405507
24.8397521
23.8330588
52.4938351
51.6826937
50.0134495
48.2689512
46.6966336
45.2626409
43.9647637
42.7974706
41.7280437
40.7238687
39.7638262
38.8342216
37.9252644
37.02991
36.1429531
35.260142
34.3776308
33.4917225
32.5987805
31.6952384
30.7776998
29.8431207
28.8890739
27.9140857
26.9180227
25.9024803
24.8710929
23.8296549
52.4203422
51.6105327
49.9458372
48.2087941
46.6460647
45.2234175
43.9383228
42.7848873
41.7300758
40.7410208
39.7963933
38.8823188
37.9888401
37.1087352
36.2365879
35.3678784
34.4984063
33.6240102
32.7404571
31.8434406
30.9286819
29.9921398
29.0303422
28.040841
27.0227753
25.9774897
24.9090981
23.8248168
52.3628304
51.5541749
49.8934132
48.1628504
46.6085404
45.1959924
43.9224573
42.7817758
41.7406767
40.7661032
39.8365676
38.9380554
38.0604726
37.1964466
36.3403648
35.4874385
34.6330888
33.7726365
32.9011512
32.013417
31.1040152
30.1675469
29.1990277
28.194482
27.1517448
26.0714278
24.9579092
23.8200885
52.3189244
51.51129
49.8539982
48.1291794
46.5824009
45.1789977
43.9160823
42.7873101
41.7592479
40.7987143
39.8841218
39.0013675
38.1402784
37.2933747
36.4548887
35.6197914
34.7831432
33.9397264
33.0838355
32.2091821
31.3089229
30.3758602
29.4028725
28.3836522
27.3138101
26.1923542
25.0233872
23.8176903
52.2865295
51.4798144
49.8256323
48.105985
46.5660442
45.1710353
43.9179975
42.8004713
41.784928
40.8381269
39.9384469
39.07177
38.227907
37.3993417
36.5802262
35.7653703
34.9495356
34.126998
33.2912517
32.4348088
31.5491179
30.6246712
29.6514038
28.6195319
27.5209914
26.3516249
25.1140095
23.8207059
52.2637689
51.4578914
49.8065274
48.0915871
46.5579171
45.1706835
43.926906
42.8200712
41.8166139
40.8833085
39.9985692
39.148338
38.3224904
37.5135791
36.715794
35.9239093
35.1325167
34.3355006
33.5256204
32.6941498
31.8306019
30.9226253
29.9562263
28.9165814
27.7897519
26.5657453
25.2429478
23.8345354
52.2489419
51.4438324
49.7950366
48.0844032
46.5565106
45.1765052
43.941429
42.8447713
41.8529945
40.9329453
40.0631464
39.2296795
38.422597
37.6346495
36.8602209
36.0942372
35.3313364
34.5652423
33.7881924
32.9903517
32.1592287
31.279171
30.3311506
29.2932267
28.142269
26.8580379
25.4298247
23.8687161
52.2404983
51.4360935
49.7896368
48.0829406
46.5603612
45.1870556
43.9601302
42.8731222
41.8925737
40.9854534
40.130468
39.3139349
38.5262002
37.7603633
37.0111993
36.2740403
35.5438892
34.8146932
34.0785964
33.3250693
32.5398805
31.7039405
30.7922002
29.7730409
28.6090104
27.2613055
25.6990426
23.925321
52.2370255
51.4332718
49.7889219
48.0857942
46.5680622
45.2009102
43.9815467
42.9035893
41.9336927
41.0390086
40.198495
39.3987937
38.6306641
37.8877196
37.1653552
36.4596226
35.7663157
35.0801675
34.3939404
33.6972463
32.9749669
32.2051839
31.3566559
30.3860995
29.2360329
27.836358
26.109292
24.0219091
52.2372454
51.4340861
49.7916026
48.0916592
46.5782804
45.2166893
44.0042146
42.93458
41.9745861
41.0916094
40.2649133
39.4815404
38.7327732
38.0129
37.3181724
36.6457117
35.9926145
35.3551381
34.7276979
34.1014281
33.4620154
32.7864547
32.03847
31.1623924
30.0772775
28.6722721
26.7982334
24.3368063
52.2400202
51.4373804
49.7965169
48.0993474
46.5897771
45.233079
44.026708
42.9645091
42.013449
41.1411523
40.3272216
39.559152
38.8288306
38.1313498
37.4640263
36.825386
36.2143668
35.6296048
35.0685074
34.5257637
33.9907763
33.4431263
32.8447353
32.1263969
31.171355
29.7877818
27.7301328
24.7469475
52.2443618
51.4421548
49.8026476
48.1078031
46.6014359
45.2488741
44.0476935
42.9918624
42.0485177
41.1855342
40.3828587
39.6284529
38.91484
38.2379821
37.5963883
36.9902297
36.4207276
35.8897025
35.3990051
34.9494776
34.5388282
34.157048
33.7763918
33.3286749
32.6595902
31.4024827
28.9438433
23.913637
52.2494436
51.4475755
49.8091377
48.1161274
46.6122946
45.2630199
44.0659842
43.0152687
42.0781658
41.2227782
40.4293676
39.6863285
38.9867843
38.3275348
37.7082703
37.1308494
36.5989415
36.1179809
35.6952569
35.3399737
35.0630093
34.8755069
34.7844278
34.7789312
34.7895239
34.5258495
33.0671825
25.592647
68.5056889
60.1117761
54.0813469
50.6858428
48.1330735
45.9742534
44.1961982
42.6949869
41.3613314
40.1380443
38.9962256
37.9164008
36.8844746
35.8903963
34.9266918
33.9875259
33.0682542
32.1651626
31.2752768
30.3962187
29.5261001
28.6634413
27.807109
26.9562663
26.1103324
25.2689488
24.4319482
23.5993268
60.7995341
57.702119
54.1176522
51.209705
48.7348968
46.5448856
44.6685493
43.0650847
41.6510917
40.367762
39.1815853
38.0693528
37.0133608
36.000728
35.0221858
34.0708095
33.1412643
32.2293889
31.3319138
30.446257
29.5703812
28.702694
27.8419746
26.987317
26.138085
25.2938742
24.454479
23.619861
57.5798341
56.5059055
53.9852997
51.2854482
48.9198306
46.8141381
44.9360712
43.2885429
41.8321158
40.5161756
39.3047273
38.1731325
37.1025248
36.0786219
35.0910497
34.1321867
33.1962478
32.2787643
31.3762601
30.4860167
29.6059055
28.7342723
27.8698552
27.0117233
26.1592272
25.3119596
24.4697185
23.6324753
56.0510167
55.4204017
53.4265934
51.0363381
48.8691511
46.9062689
45.09901
43.4687774
42.0077428
40.6799099
39.4535281
38.3066375
37.2221346
36.1861666
35.1881442
34.2201437
33.2761065
32.3513168
31.4420919
30.5455555
29.6594637
28.7820814
27.9120956
27.0485487
26.190787
25.3384161
24.4912622
23.6493354
54.9645648
54.438384
52.7825829
50.6945338
48.7129287
46.8728453
45.1477981
43.564287
42.1267326
40.8097354
39.5865579
38.4380287
37.349162
36.3074293
35.3029217
34.3280859
33.3770773
32.4452813
31.5290433
30.6254808
29.7323331
28.8478502
27.9707146
27.0999805
26.2350246
25.3755023
24.5213069
23.6725297
54.1589848
53.69422
52.2291142
50.3379584
48.493229
46.7532787
45.1074303
43.5808862
42.1810109
40.888896
39.6820553
38.543538
37.4600364
36.4203697
35.4155539
34.4386512
33.4842469
32.5480237
31.6265235
30.7169924
29.8172593
28.9256445
28.0408963
27.1621413
26.2888431
25.4207618
24.5579144
23.7005316
53.5466207
53.1163777
51.754425
49.9892961
48.2504438
46.5957363
45.0208046
43.5500685
42.1914576
40.9295711
39.7449672
38.6224747
37.5500917
36.5177491
35.5173003
34.5423931
33.5880353
32.6502207
31.7257156
30.8119281
29.9068106
29.008788
28.1167092
27.2298106
26.3476833
25.4702386
24.597669
23.7304036
53.0654165
52.6541176
51.3533875
49.6730017
48.0147359
46.4291897
44.9138191
43.4928951
42.1740388
40.9432692
39.7829586
38.6792315
37.6210521
36.5991835
35.6061499
34.6360924
33.6843788
32.7472689
31.8217235
30.9052931
29.9960406
29.0924889
28.1935883
27.2986934
26.4075414
25.5202239
24.6371502
23.7589992
52.6797679
52.2804584
51.0190869
49.3964725
47.7977922
46.2669187
44.8008377
43.423189
42.1408041
40.9400115
39.8041193
38.7201
37.6775896
36.6679411
35.6841794
34.7208308
33.7735449
32.8387851
31.9136569
30.9958121
30.0833906
29.1749862
28.2696316
27.3667911
26.4663516
25.5686035
24.6742072
23.784141
52.3669274
51.9757191
50.7407854
49.1584225
47.6040054
46.1163439
44.6909385
43.3503635
42.1005327
40.9275966
39.8152303
38.750871
37.7245697
36.7280614
35.7547093
34.7993073
33.8576983
32.9264773
32.0028326
31.0844648
30.1695442
29.2566959
28.345004
27.4340231
26.5237856
25.614795
24.7079975
23.8047272
52.1111437
51.7256116
50.5092182
48.9558288
47.4348007
45.9813711
44.5894263
43.280363
42.0591872
40.9116546
39.8214571
38.7762068
37.7661589
36.7832561
35.8210526
34.8744929
33.9395188
33.0127759
32.0914636
31.1732653
30.2563216
29.3392347
28.4210955
27.5015177
26.5806674
25.6592732
24.7386075
23.8204292
51.9011486
51.5197516
50.3168861
48.7850013
47.289594
45.8634717
44.4991371
43.2168722
42.0208286
40.8962842
39.8267569
38.7998416
37.8058396
36.8367625
35.8862317
34.9492333
34.0217136