/*--------------------------------*- C++ -*----------------------------------*\
| =========                 |                                                 |
| \\      /  F ield         | foam-extend: Open Source CFD                    |
|  \\    /   O peration     | Version:     4.1                                |
|   \\  /    A nd           | Web:         http://www.foam-extend.org         |
|    \\/     M anipulation  |                                                 |
\*---------------------------------------------------------------------------*/
FoamFile
{
    version     2.0;
    format      ascii;
    class       surfaceScalarField;
    location    "0.6";
    object      phi;
}
// * * * * * * * * * * * * * * * * * * * * * * * * * * * * * * * * * * * * * //

dimensions      [0 3 -1 0 0 0 0];

internalField   nonuniform List<scalar> 
102656
(
0.000395261004
5.30266463e-05
5.17123497e-05
0.00028160948
5.82613065e-05
5.53902166e-05
0.000200387946
4.23600739e-05
3.88614587e-05
0.000148889535
2.74480838e-05
2.40503268e-05
0.000117042154
1.73742534e-05
1.44731268e-05
9.6824776e-05
1.12262118e-05
8.99116542e-06
8.35596618e-05
7.39812798e-06
5.86698561e-06
7.46483036e-05
4.89527324e-06
4.01608454e-06
6.8479198e-05
3.24943231e-06
2.91967303e-06
6.40367854e-05
2.17043549e-06
2.27197704e-06
6.07106874e-05
1.45273299e-06
1.87336525e-06
5.81364033e-05
9.65366868e-07
1.60891762e-06
5.60899106e-05
6.28512981e-07
1.41798025e-06
5.44293136e-05
3.91960852e-07
1.26863693e-06
5.30617483e-05
2.23468448e-07
1.14409771e-06
5.1923692e-05
1.02335952e-07
1.03572134e-06
5.09694158e-05
1.52128257e-08
9.39064551e-07
5.01645435e-05
-4.67830604e-08
8.51656493e-07
4.94822032e-05
-8.96534016e-08
7.71994835e-07
4.89004884e-05
-1.17378424e-07
6.99094437e-07
4.8401005e-05
-1.32727517e-07
6.32212066e-07
4.79680018e-05
-1.37757441e-07
5.7076173e-07
4.75877918e-05
-1.34077055e-07
5.14288114e-07
4.72483602e-05
-1.23007296e-07
4.62439817e-07
4.69391182e-05
-1.05710096e-07
4.1495301e-07
4.66507552e-05
-8.32742676e-08
3.71638096e-07
4.63751555e-05
-5.67652443e-08
3.3236573e-07
-2.72458202e-08
2.97052581e-07
4.61053494e-05
0.000461998929
2.77115519e-05
6.33161646e-05
0.000392853451
5.22457929e-05
7.51609892e-05
0.000323886528
5.01980989e-05
6.11288972e-05
0.000266758928
4.04824139e-05
4.40932683e-05
0.000223839012
3.04901766e-05
2.98039918e-05
0.000193124006
2.23551862e-05
1.95860304e-05
0.000171286368
1.62959945e-05
1.29397699e-05
0.000155542912
1.1858038e-05
8.78069093e-06
0.000143956653
8.61530025e-06
6.22039097e-06
0.000135215989
6.25997609e-06
4.65112419e-06
0.000128449904
4.54995264e-06
3.66886554e-06
0.000123089084
3.30046097e-06
3.02572767e-06
0.00011875811
2.37864857e-06
2.58083912e-06
0.000115203946
1.69088906e-06
2.2552378e-06
0.000112251741
1.17186146e-06
2.00381385e-06
0.000109777055
7.76593483e-07
1.80042964e-06
0.000107688305
4.74307869e-07
1.62965753e-06
0.000105915522
2.43891675e-07
1.48211065e-06
0.000104403354
7.06995871e-08
1.35181692e-06
0.000103106922
-5.56890211e-08
1.23474462e-06
0.000101988985
-1.4285328e-07
1.12806493e-06
0.000101017874
-1.96424126e-07
1.02977882e-06
0.000100166144
-2.20821347e-07
9.38476544e-07
9.94097292e-05
-2.19748887e-07
8.53157975e-07
9.8727397e-05
-1.96507151e-07
7.73130782e-07
9.810039e-05
-1.54211693e-07
6.97945815e-07
9.75122098e-05
-9.59331562e-08
6.27349325e-07
-2.47707607e-08
5.61242171e-07
9.69484937e-05
0.000447769699
1.52547038e-05
6.46871482e-05
0.000388238282
3.58422671e-05
7.59349415e-05
0.000335580978
4.06676974e-05
6.21877043e-05
0.000291761027
3.76331566e-05
4.6669207e-05
0.00025707793
3.18678487e-05
3.33054239e-05
0.000230707396
2.56788324e-05
2.30468864e-05
0.000210911812
2.0154832e-05
1.59367465e-05
0.000195900181
1.56032898e-05
1.12663786e-05
0.000184285992
1.19758501e-05
8.2536389e-06
0.00017509895
9.13640114e-06
6.31061718e-06
0.000167682182
6.93615388e-06
5.03056725e-06
0.000161594203
5.23671969e-06
4.15172163e-06
0.000156532522
3.92174649e-06
3.51858425e-06
0.000152282882
2.8990745e-06
3.04145589e-06
0.000148688517
2.09850228e-06
2.66772532e-06
0.000145631243
1.46822853e-06
2.36564013e-06
0.000143019366
9.70877181e-07
2.11530921e-06
0.000140779844
5.79791172e-07
1.90362476e-06
0.000138853101
2.75977259e-07
1.72146648e-06
0.000137189405
4.57927241e-08
1.56221624e-06
0.000135746407
-1.20780651e-07
1.42092698e-06
0.000134487524
-2.31366046e-07
1.2938264e-06
0.000133380695
-2.9204939e-07
1.17805782e-06
0.000132397491
-3.08019352e-07
1.07147603e-06
0.00013151254
-2.84048174e-07
9.72492918e-07
0.000130703177
-2.24815521e-07
8.79968204e-07
0.000129949234
-1.35113795e-07
7.93124789e-07
-1.99587397e-08
7.11476853e-07
0.000129232946
0.000440472567
9.9591217e-06
6.48230145e-05
0.000375873972
2.46435498e-05
7.57973107e-05
0.000324700833
3.07171126e-05
6.11237228e-05
0.000286197429
3.08577458e-05
4.52788133e-05
0.000257839716
2.81109394e-05
3.21146217e-05
0.00023717409
2.41841385e-05
2.21603196e-05
0.000221931096
2.00758243e-05
1.53220006e-05
0.000210341761
1.63100748e-05
1.08825505e-05
0.000201200637
1.30651968e-05
8.05177752e-06
0.000193741797
1.03532251e-05
6.24201552e-06
0.000187496067
8.12529127e-06
5.05659375e-06
0.000182177868
6.31263717e-06
4.24228181e-06
0.00017760613
4.84440115e-06
3.64908474e-06
0.000173656585
3.65623935e-06
3.19238074e-06
0.000170236418
2.69388884e-06
2.82478189e-06
0.00016727144
1.91389896e-06
2.5193089e-06
0.000164699575
1.28276811e-06
2.25997488e-06
0.000162467443
7.75335417e-07
2.03658881e-06
0.00016052839
3.72998893e-07
1.84203258e-06
0.000158841182
6.207431e-08
1.67092761e-06
0.000157369021
-1.67617772e-07
1.5189993e-06
0.000156078809
-3.23912227e-07
1.38275938e-06
0.000154940561
-4.13165695e-07
1.25936494e-06
0.000153926974
-4.40944694e-07
1.14651343e-06
0.000153013137
-4.12583999e-07
1.04237383e-06
0.000152176372
-3.33579989e-07
9.45530337e-07
0.000151396176
-2.09847237e-07
8.54930028e-07
-4.78540203e-08
7.69831432e-07
0.000150654241
0.000437878133
7.06273496e-06
6.50182535e-05
0.000368456983
1.77997537e-05
7.62649441e-05
0.000314730094
2.34041045e-05
6.10398961e-05
0.000276413922
2.47887809e-05
4.4385136e-05
0.000250113003
2.36943311e-05
3.07175273e-05
0.000232368519
2.13282074e-05
2.06004148e-05
0.000220183458
1.84556425e-05
1.38052419e-05
0.000211416502
1.55612241e-05
9.51580674e-06
0.000204717896
1.28872126e-05
6.87659024e-06
0.000199291649
1.05204931e-05
5.25898003e-06
0.000194694515
8.47451609e-06
4.24791e-06
0.000190691909
6.73090072e-06
3.58434282e-06
0.000187161106
5.25798998e-06
3.11721487e-06
0.000184033749
4.02050396e-06
2.76309321e-06
0.000181265642
2.98478636e-06
2.47721018e-06
0.000178822324
2.12135752e-06
2.23586065e-06
0.000176672875
1.40581689e-06
2.02640036e-06
0.000174787706
8.18778728e-07
1.84172648e-06
0.000173138019
3.45289037e-07
1.67739773e-06
0.000171695841
-2.59757069e-08
1.53022859e-06
0.000170434192
-3.03638432e-07
1.39767055e-06
0.000169327195
-4.94461762e-07
1.27754699e-06
0.000168350095
-6.04043541e-07
1.16797834e-06
0.000167479355
-6.37530721e-07
1.06732687e-06
0.000166692746
-6.00173638e-07
9.74199645e-07
0.00016596947
-4.97752103e-07
8.87448379e-07
0.000165290332
-3.36871709e-07
8.06162877e-07
-1.25120423e-07
7.29657416e-07
0.000164637942
0.000436606231
5.27569485e-06
6.51808084e-05
0.000364324067
1.34336168e-05
7.66482997e-05
0.000308254854
1.82408325e-05
6.12324841e-05
0.000268854461
2.00668774e-05
4.41222964e-05
0.000242611503
1.98821859e-05
3.00551029e-05
0.000225729913
1.85115568e-05
1.96982403e-05
0.000214860695
1.65335413e-05
1.27913186e-05
0.000207593324
1.43482384e-05
8.48035717e-06
0.000202407687
1.21931924e-05
5.87965753e-06
0.000198411453
1.01842609e-05
4.33246628e-06
0.00019511337
8.36836617e-06
3.40423386e-06
0.00019226109
6.75744239e-06
2.82573809e-06
0.000189732582
5.34582201e-06
2.4406769e-06
0.000187470767
4.11965291e-06
2.16266603e-06
0.000185447796
3.06228871e-06
1.94546996e-06
0.0001836469
2.15728441e-06
1.76496899e-06
0.000182054013
1.38993751e-06
1.60876657e-06
0.000180654459
7.47940959e-07
1.47039287e-06
0.000179432023
2.21482394e-07
1.34624299e-06
0.000178369041
-1.97023443e-07
1.23402923e-06
0.000177446739
-5.13426738e-07
1.1320907e-06
0.000176645565
-7.32351811e-07
1.03906473e-06
0.000175945592
-8.57827913e-07
9.53758262e-07
0.000175326868
-8.93904948e-07
8.75097846e-07
0.000174769759
-8.45197215e-07
8.02133627e-07
0.000174255299
-7.17337477e-07
7.34045643e-07
0.000173765585
-5.17308315e-07
6.70150434e-07
-2.53618692e-07
6.0990338e-07
0.000173284181
0.000435884443
4.09209787e-06
6.52991539e-05
0.000361911615
1.046778e-05
7.69386635e-05
0.000304148417
1.45068447e-05
6.14971859e-05
0.000263620191
1.64101864e-05
4.41849164e-05
0.000236886523
1.67262941e-05
2.98895595e-05
0.000220035893
1.59998773e-05
1.93623092e-05
0.000209564919
1.46596943e-05
1.23448215e-05
0.000202921044
1.30229434e-05
7.96917041e-06
0.000198476536
1.12987592e-05
5.33894089e-06
0.000195266784
9.60815626e-06
3.78585687e-06
0.000192754616
8.01476906e-06
2.86576621e-06
0.000190659312
6.54876543e-06
2.30398059e-06
0.00018884247
5.22144888e-06
1.94121553e-06
0.000187239255
4.0339067e-06
1.68896239e-06
0.000185820066
2.98215653e-06
1.4993209e-06
0.00018457022
2.0601882e-06
1.34694218e-06
0.000183479861
1.26172867e-06
1.2185682e-06
0.000182539439
5.81203284e-07
1.10715937e-06
0.000181737967
1.41795809e-08
1.00877463e-06
0.000181062604
-4.42665646e-07
9.21006081e-07
0.000180498703
-7.91701395e-07
8.42175326e-07
0.000180030038
-1.03470099e-06
7.71014285e-07
0.000179639189
-1.17343349e-06
7.06454366e-07
0.000179307943
-1.21022367e-06
6.47564732e-07
0.00017901773
-1.14851212e-06
5.93528841e-07
0.000178750119
-9.93360959e-07
5.4363409e-07
0.000178487384
-7.51841016e-07
4.97268716e-07
-4.33242603e-07
4.53919984e-07
0.000178213088
0.00043544815
3.25320477e-06
6.53907427e-05
0.000360405032
8.34152642e-06
7.71693711e-05
0.000301442298
1.17169248e-05
6.1752654e-05
0.000259979538
1.35253409e-05
4.43476055e-05
0.000232686971
1.409449e-05
2.99243706e-05
0.000215611857
1.37796197e-05
1.92953714e-05
0.000205171254
1.28903579e-05
1.22099401e-05
0.000198733673
1.16710309e-05
7.78949313e-06
0.000194606927
1.02956895e-05
5.12981583e-06
0.000191780553
8.8775412e-06
3.55698951e-06
0.000189686872
7.48569968e-06
2.62275095e-06
0.000188024735
6.16028372e-06
2.05061868e-06
0.00018664183
4.92341242e-06
1.68094202e-06
0.000185464135
3.78650776e-06
1.4250935e-06
0.000184456492
2.75489372e-06
1.23490587e-06
0.00018360136
1.83067468e-06
1.08464557e-06
0.000182887921
1.01454572e-06
9.606217e-07
0.000182306869
3.06894632e-07
8.55360425e-07
0.000181848158
-2.91636107e-07
7.64526595e-07
0.00018150007
-7.79970294e-07
6.85392158e-07
0.000181248924
-1.15659491e-06
6.16040184e-07
0.000181079182
-1.41997643e-06
5.55017008e-07
0.000180973674
-1.5690515e-06
5.01126308e-07
0.000180913928
-1.60383067e-06
4.5335268e-07
0.000180880645
-1.52604587e-06
4.10816656e-07
0.000180854293
-1.3397602e-06
3.72751841e-07
0.000180815822
-1.05185697e-06
3.38487216e-07
-6.72317774e-07
3.07433724e-07
0.000180747464
0.000435163225
2.62809316e-06
6.5461886e-05
0.00035940723
6.74948724e-06
7.73480345e-05
0.000299591695
9.56751512e-06
6.19649449e-05
0.000257394926
1.1205956e-05
4.45161538e-05
0.000229592717
1.18758032e-05
3.00208957e-05
0.000212228942
1.18106441e-05
1.93327511e-05
0.000201679583
1.12305476e-05
1.22091696e-05
0.000195266158
1.03199874e-05
7.76446851e-06
0.000191254812
9.21892932e-06
5.08810701e-06
0.000188603656
8.02661043e-06
3.50208701e-06
0.000186723624
6.81018055e-06
2.55555151e-06
0.00018529929
5.61348172e-06
1.971136e-06
0.000184168571
4.464644e-06
1.58948687e-06
0.000183250719
3.381784e-06
1.3225753e-06
0.000182506083
2.37684023e-06
1.12269012e-06
0.000181914297
1.45811443e-06
9.64345264e-07
0.000181462928
6.31983386e-07
8.33931259e-07
0.00018114186
-9.59766805e-08
7.23939238e-07
0.000180940672
-7.20405499e-07
6.29957153e-07
0.00018084739
-1.23579041e-06
5.49101788e-07
0.000180847995
-1.636549e-06
4.79348145e-07
0.00018092629
-1.91739588e-06
4.19124961e-07
0.000181063975
-2.07388033e-06
3.67143173e-07
0.000181240933
-2.10309931e-06
3.22311091e-07
0.000181435713
-2.00450451e-06
2.83678821e-07
0.000181626239
-1.78070582e-06
2.50419278e-07
0.00018179072
-1.43812873e-06
2.21791576e-07
-9.87406074e-07
1.97111739e-07
0.000181908697
0.000434966813
2.14445664e-06
6.55168234e-05
0.000358716741
5.51390157e-06
7.74856583e-05
0.000298284551
7.86507902e-06
6.21346258e-05
0.000255517596
9.30753617e-06
4.46653748e-05
0.000227278415
9.9870364e-06
3.01279481e-05
0.0002096253
1.00604069e-05
1.94033527e-05
0.000198916031
9.68329003e-06
1.22565276e-05
0.00019244466
8.99322636e-06
7.79813216e-06
0.000188450109
8.10034056e-06
5.11313982e-06
0.000185868206
7.08816009e-06
3.52035362e-06
0.00018409379
6.01774116e-06
2.56685489e-06
0.000182800397
4.93239906e-06
1.9744753e-06
0.000181818406
3.86263834e-06
1.58399665e-06
0.000181061961
2.83035164e-06
1.30787721e-06
0.000180488073
1.85185235e-06
1.09887581e-06
0.000180074333
9.40000916e-07
9.31852989e-07
0.000179807156
1.05736025e-07
7.93424234e-07
0.00017967585
-6.4091229e-07
6.76240502e-07
0.000179669639
-1.29012022e-06
5.75925965e-07
0.000179776178
-1.83196949e-06
4.89639289e-07
0.000179980817
-2.25655318e-06
4.15364893e-07
0.000180266233
-2.55434227e-06
3.51531103e-07
0.000180612351
-2.71685733e-06
2.96858672e-07
0.000180996556
-2.73756894e-06
2.50264239e-07
0.000181394197
-2.61294865e-06
2.10803517e-07
0.000181779422
-2.34355902e-06
1.77628579e-07
0.000182126337
-1.9350176e-06
1.49973999e-07
-1.39863692e-06
1.27148509e-07
0.00018241042
0.000434826195
1.75888387e-06
6.55593781e-05
0.000358221163
4.52666313e-06
7.75922708e-05
0.000297332988
6.48448261e-06
6.22687722e-05
0.000254121913
7.72878053e-06
4.47898307e-05
0.000225516997
8.36568816e-06
3.02262646e-05
0.000207596415
8.50314352e-06
1.94778462e-05
0.000196712614
8.25147366e-06
1.2315617e-05
0.000190144811
7.71248452e-06
7.84854494e-06
0.000186114951
6.97157057e-06
5.15863085e-06
0.000183543621
6.09718472e-06
3.56230504e-06
0.000181813772
5.1425165e-06
2.60507359e-06
0.000180590283
4.14780429e-06
2.00808384e-06
0.000179697419
3.14339888e-06
1.61210291e-06
0.000179045155
2.15275203e-06
1.32986277e-06
0.000178587841
1.19473973e-06
1.11442623e-06
0.000178301554
2.8539388e-07
9.40894111e-07
0.000178172016
-5.60806743e-07
7.9608068e-07
0.000178188313
-1.3299444e-06
6.72734189e-07
0.00017833965
-2.00800504e-06
5.66547745e-07
0.000178613558
-2.58064023e-06
4.74762315e-07
0.00017899484
-3.03325153e-06
3.95416156e-07
0.000179464947
-3.35144806e-06
3.26998876e-07
0.000180001692
-3.52187697e-06
2.68274529e-07
0.000180579317
-3.53339816e-06
2.18204195e-07
0.000181168987
-3.3785206e-06
1.75901946e-07
0.000181739785
-3.05494413e-06
1.4058739e-07
0.000182260206
-2.56698771e-06
1.11549762e-07
-1.92661945e-06
8.81165305e-08
0.000182700072
0.000434722169
1.44413477e-06
6.55925801e-05
0.000357853782
3.71953328e-06
7.76755175e-05
0.000296620447
5.34314969e-06
6.23746692e-05
0.000253060031
6.3981143e-06
4.48910825e-05
0.00022415115
6.96409721e-06
3.03104719e-05
0.000205991479
7.11699095e-06
1.95458241e-05
0.00019493473
6.93541848e-06
1.23728045e-05
0.000188253153
6.49442844e-06
7.89963313e-06
0.000184158805
5.85952336e-06
5.20639524e-06
0.000181562449
5.08570978e-06
3.60783108e-06
0.000179838753
4.21792387e-06
2.64828866e-06
0.000178646177
3.29198707e-06
2.04839229e-06
0.00017780426
2.3364612e-06
1.64885429e-06
0.000177219701
1.3747535e-06
1.36255728e-06
0.000176844814
4.26884786e-07
1.14274216e-06
0.000176654653
-4.8912393e-07
9.64677776e-07
0.000176634675
-1.35609103e-06
8.15261882e-07
0.000176774208
-2.15674561e-06
6.87268325e-07
0.000177062869
-2.87313953e-06
5.76473225e-07
0.000177488427
-3.48635846e-06
4.80160221e-07
0.000178035399
-3.97662507e-06
3.96400653e-07
0.000178684074
-4.32385313e-06
3.23730421e-07
0.000179409904
-4.50868959e-06
2.60982608e-07
0.00018018335
-4.51404911e-06
2.07204517e-07
0.000180970305
-4.32707638e-06
1.61600909e-07
0.000181733234
-3.9413576e-06
1.23485012e-07
0.000182433094
-3.3590803e-06
9.22333097e-08
-2.59271853e-06
6.72386281e-08
0.000183031954
0.000434642896
1.18248336e-06
6.56187554e-05
0.000357573321
3.04786346e-06
7.77412456e-05
0.000296072397
4.38526752e-06
6.24588076e-05
0.000252233071
5.26442485e-06
4.49730156e-05
0.000223070712
5.74571137e-06
3.03807458e-05
0.000204699971
5.88312969e-06
1.96046025e-05
0.000193478745
5.73294446e-06
1.24236997e-05
0.000186676938
5.35029191e-06
7.94594342e-06
0.000182501378
4.78490713e-06
5.25017667e-06
0.000179856934
4.08021925e-06
3.64993379e-06
0.000178112927
3.27322908e-06
2.68870195e-06
0.000176923444
2.39475822e-06
2.08671128e-06
0.000176104714
1.47056974e-06
1.68462125e-06
0.000175561178
5.22884068e-07
1.39540508e-06
0.000175243883
-4.28264351e-07
1.17244397e-06
0.000175127506
-1.36383115e-06
9.91083485e-07
0.000175197888
-2.26468817e-06
8.38215389e-07
0.000175445225
-3.11075883e-06
7.06675981e-07
0.000175860176
-3.88034635e-06
5.92254895e-07
0.000176431362
-4.54978504e-06
4.92240325e-07
0.000177143522
-5.09351326e-06
4.04728619e-07
0.000177976056
-5.4846868e-06
3.28299111e-07
0.000178901961
-5.69644205e-06
2.61847823e-07
0.000179887279
-5.70387792e-06
2.04510523e-07
0.00018089133
-5.48672797e-06
1.55601049e-07
0.000181867956
-5.03254099e-06
1.14557592e-07
0.000182767964
-4.33997431e-06
8.0885674e-08
-3.42157172e-06
5.40911482e-08
0.000183542726
0.000434580792
9.62018587e-07
6.56396735e-05
0.000357353233
2.48154237e-06
7.77938805e-05
0.000295639757
3.57230247e-06
6.25264421e-05
0.000251573662
4.29088256e-06
4.50396381e-05
0.000222197802
4.6825624e-06
3.04390091e-05
0.000203640844
4.78567534e-06
1.96544129e-05
0.000192265782
4.6404427e-06
1.2467564e-05
0.000185342699
4.28713152e-06
7.9862432e-06
0.000181076138
3.76300749e-06
5.28846041e-06
0.000178367797
3.10169072e-06
3.68686923e-06
0.000176583865
2.33286334e-06
2.72429734e-06
0.000175375788
1.48216688e-06
2.12066764e-06
0.000174557823
5.71944201e-07
1.71659084e-06
0.000174033203
-3.77628884e-07
1.42513256e-06
0.000173752606
-1.34741672e-06
1.19974855e-06
0.000173691219
-2.31820918e-06
1.01576557e-06
0.000173836114
-3.26971707e-06
8.60132808e-07
0.000174179261
-4.17959515e-06
7.25689684e-07
0.000174713339
-5.0226321e-06
6.08207328e-07
0.000175428819
-5.77023018e-06
5.04965417e-07
0.000176311572
-6.3903369e-06
4.14069612e-07
0.000177340782
-6.8480261e-06
3.34130007e-07
0.000178487175
-7.1069396e-06
2.64104328e-07
0.000179711844
-7.13177161e-06
2.03224589e-07
0.000180966037
-6.89186265e-06
1.50941536e-07
0.000182192388
-6.36575632e-06
1.06864373e-07
0.000183327959
-5.54623174e-06
7.06863651e-08
-4.44489897e-06
4.20869677e-08
0.000184309199
0.000434530833
7.74520576e-07
6.5656666e-05
0.000357175891
1.99975406e-06
7.78367311e-05
0.000295289404
2.87714993e-06
6.25816401e-05
0.000251035159
3.45071194e-06
4.50944171e-05
0.000221476868
3.75332235e-06
3.04875308e-05
0.000202754472
3.81157464e-06
1.96964976e-05
0.000191235983
3.65389282e-06
1.2505039e-05
0.000184192921
3.30930127e-06
8.02089117e-06
0.000179829294
2.80515498e-06
5.32148002e-06
0.000177045401
2.16678682e-06
3.71879577e-06
0.000175205922
1.41719779e-06
2.75514401e-06
0.000173961023
5.76872079e-07
2.15019396e-06
0.0001731241
-3.35681702e-07
1.7445484e-06
0.00017259819
-1.30303867e-06
1.45131934e-06
0.000172334619
-2.30777371e-06
1.22392763e-06
0.000172310054
-3.33140315e-06
1.03775953e-06
0.000172513867
-4.3533099e-06
8.79779094e-07
0.000172941038
-5.34955544e-06
7.42789175e-07
0.000173587667
-6.29179287e-06
6.22531167e-07
0.000174447588
-7.14641366e-06
5.1626233e-07
0.00017550932
-7.87414582e-06
4.2207677e-07
0.00017675311
-8.43041892e-06
3.38602405e-07
0.000178148154
-8.76684412e-06
2.64860732e-07
0.000179650362
-8.8341799e-06
2.00200292e-07
0.0001812013
-8.5870512e-06
1.44250015e-07
0.000182729098
-7.99041337e-06
9.68589501e-08
0.000184152095
-7.02723152e-06
5.80019686e-08
-5.70610253e-06
2.7635403e-08
0.000185385663
0.000434489597
6.14199088e-07
6.56707248e-05
0.000357029296
1.58780333e-06
7.78722529e-05
0.000294998538
2.28042263e-06
6.26274863e-05
0.000250584815
2.72428565e-06
4.51401506e-05
0.000220867948
2.94179565e-06
3.0528394e-05
0.000201996841
2.95038925e-06
1.97322919e-05
0.000190344011
2.76956135e-06
1.25371623e-05
0.000183182896
2.41968295e-06
8.05073241e-06
0.00017871791
1.92014128e-06
5.35e-06
0.000175849067
1.28919091e-06
3.74643832e-06
0.000173940607
5.43734922e-07
2.78192226e-06
0.000172642363
-3.00836627e-07
2.17595214e-06
0.000171767808
-1.23022483e-06
1.76909743e-06
0.000171220736
-2.23035762e-06
1.47439153e-06
0.000170954016
-3.28636581e-06
1.24531181e-06
0.000170946825
-4.38149719e-06
1.05728408e-06
0.000171192122
-5.49583328e-06
8.97226321e-07
0.000171689449
-6.60478586e-06
7.579039e-07
0.000172440202
-7.67755037e-06
6.35004318e-07
0.000173443759
-8.67570195e-06
5.25731014e-07
0.000174693629
-9.55216581e-06
4.28149277e-07
0.000176173355
-1.02510384e-05
3.40893607e-07
0.000177852251
-1.07087883e-05
2.63047787e-07
0.000179681487
-1.08575174e-05
1.94100728e-07
0.000181591436
-1.06309218e-05
1.33920812e-07
0.000183491616
-9.97329908e-06
8.27056309e-08
0.000185274715
-8.8512005e-06
4.08693736e-08
-7.26609844e-06
8.82406285e-09
0.000186825887
0.000434454717
4.76898211e-07
6.5682584e-05
0.000356905139
1.23512358e-06
7.79022593e-05
0.000294751227
1.76804864e-06
6.26662871e-05
0.000250199401
2.09710623e-06
4.5179006e-05
0.000220342151
2.23572168e-06
3.05633245e-05
0.000201335472
2.19396588e-06
1.97631021e-05
0.000189555683
1.98438227e-06
1.25649687e-05
0.000182278166
1.62053928e-06
8.07665994e-06
0.000177708168
1.11529175e-06
5.3748469e-06
0.000174746014
4.80762929e-07
3.77058165e-06
0.000172756095
-2.71783406e-07
2.80543723e-06
0.000171388556
-1.13203941e-06
2.19874124e-06
0.000170457666
-2.09022508e-06
1.79089025e-06
0.000169868654
-3.13629938e-06
1.49495308e-06
0.000169576734
-4.25891858e-06
1.26447257e-06
0.00016956463
-5.4442211e-06
1.07482789e-06
0.000169830269
-6.67437324e-06
9.12900446e-07
0.000170379618
-7.92551405e-06
7.71379402e-07
0.00017122177
-9.1655705e-06
6.45867596e-07
0.000172364642
-1.03520648e-05
5.33490443e-07
0.000173810201
-1.1429979e-05
4.32254232e-07
0.00017554891
-1.23305241e-05
3.40775537e-07
0.00017755338
-1.29714515e-05
2.58193548e-07
0.000179771788
-1.32600925e-05
1.84166166e-07
0.000182122385
-1.31004086e-05
1.18889082e-07
0.000184491175
-1.24051701e-05
6.30800837e-08
0.000186735538
-1.11134218e-05
1.78582321e-08
-9.21158148e-06
-1.56145061e-08
0.000188696635
0.000434424536
3.59580363e-07
6.56927824e-05
0.000356797605
9.33977141e-07
7.79280783e-05
0.000294536256
1.32965396e-06
6.26997445e-05
0.000249862387
1.55835657e-06
4.52126193e-05
0.000219878621
1.62581207e-06
3.05936769e-05
0.000200746529
1.53605396e-06
1.9790004e-05
0.000188845487
1.2960798e-06
1.25893438e-05
0.000181452588
9.13987221e-07
8.09945049e-06
0.000176773966
3.97182378e-07
5.39673119e-06
0.000173710418
-2.47659361e-07
3.79196996e-06
0.000171626761
-1.01456956e-06
2.8264423e-06
0.000170173854
-1.89828861e-06
2.21915637e-06
0.000169167069
-2.8939209e-06
1.81048047e-06
0.000168513442
-3.99623752e-06
1.51356475e-06
0.000168171156
-5.19854169e-06
1.28190947e-06
0.000168127485
-6.49140868e-06
1.09085773e-06
0.000168386734
-7.86083216e-06
9.2720926e-07
0.000168963255
-9.28558869e-06
7.83553595e-07
0.0001698768
-1.07344929e-05
6.5537752e-07
0.0001711478
-1.21627508e-05
5.39685073e-07
0.000172791621
-1.35081771e-05
4.34376616e-07
0.00017481131
-1.46882243e-05
3.38011218e-07
0.000177188384
-1.55982937e-05
2.49766923e-07
0.000179872217
-1.61134298e-05
1.6950415e-07
0.000182769599
-1.60956627e-05
9.78717377e-08
0.000185737692
-1.54096384e-05
3.63748715e-08
0.000188585256
-1.39482415e-05
-1.27449284e-08
-1.16676087e-05
-4.70244703e-08
0.000191088307
0.000434397894
2.59976626e-07
6.57017098e-05
0.00035670263
6.78571758e-07
7.79506705e-05
0.000294345756
9.57434773e-07
6.27290947e-05
0.000249562087
1.09983183e-06
4.52421944e-05
0.000219462469
1.10495898e-06
3.06204712e-05
0.000200212817
9.71877288e-07
1.98138291e-05
0.000188194829
7.030846e-07
1.26109828e-05
0.000180686895
3.02217172e-07
8.11970382e-06
0.000175895817
-2.280373e-07
5.41629714e-06
0.000172722764
-8.85860916e-07
3.81125419e-06
0.000170533009
-1.67022242e-06
2.84540763e-06
0.000168978062
-2.58096423e-06
2.23762227e-06
0.00016787436
-3.61855018e-06
1.82833085e-06
0.000167130863
-4.78337693e-06
1.53063577e-06
0.00016670904
-6.07471784e-06
1.29799954e-06
0.000166601335
-7.48939739e-06
1.10569335e-06
0.000166819571
-9.01948506e-06
9.40415934e-07
0.000167388756
-1.06493935e-05
7.94619667e-07
0.000168342662
-1.23520239e-05
6.63625127e-07
0.000169719092
-1.40834355e-05
5.44253293e-07
0.000171553655
-1.57769706e-05
4.34230607e-07
0.000173870497
-1.73370632e-05
3.31995811e-07
0.000176669504
-1.86340352e-05
2.3673385e-07
0.000179909771
-1.9502249e-05
1.48552293e-07
0.000183490932
-1.97455748e-05
6.87505576e-08
0.000187236799
-1.91555437e-05
3.69529272e-11
0.000190889556
-1.754749e-05
-5.35084712e-08
-1.48179825e-05
-8.70736311e-08
0.000194127002
0.000434373995
1.76338911e-07
6.5709643e-05
0.000356617417
4.64433561e-07
7.79707175e-05
0.000294174299
6.45339325e-07
6.27552142e-05
0.00024929042
7.15121362e-07
4.52685898e-05
0.000219083373
6.67563645e-07
3.06444429e-05
0.000199722386
4.97681553e-07
1.98351826e-05
0.00018759074
2.04353257e-07
1.26303779e-05
0.000179967646
-2.12660294e-07
8.13797097e-06
0.000175060158
-7.5464229e-07
5.43409255e-06
0.000171769553
-1.42402956e-06
3.82877263e-06
0.000169461216
-2.22450675e-06
2.86262142e-06
0.000167786869
-3.16111403e-06
2.25449611e-06
0.00016656364
-4.24007175e-06
1.84475105e-06
0.000165702091
-5.46826624e-06
1.5464373e-06
0.000165166792
-6.85237764e-06
1.31295851e-06
0.000164955397
-8.39749896e-06
1.11949626e-06
0.000165088102
-1.01048004e-05
9.52609835e-07
0.000165602425
-1.19682781e-05
8.04561256e-07
0.000166549655
-1.39696864e-05
6.70432601e-07
0.000167990881
-1.60714321e-05
5.46769938e-07
0.000169990807
-1.82079188e-05
4.31021022e-07
0.000172607013
-2.02746706e-05
3.21401095e-07
0.000175872992
-2.21170545e-05
2.1704001e-07
0.000179773591
-2.35211983e-05
1.18349959e-07
0.000184213167
-2.42127436e-05
2.7592276e-08
0.000188982174
-2.3873898e-05
-5.0653697e-08
0.000193733285
-2.21896979e-05
-1.08903975e-07
-1.89402775e-05
-1.37762243e-07
0.000197993341
0.000434352312
1.07254223e-07
6.57167728e-05
0.000356540117
2.87941659e-07
7.79886881e-05
0.000294018305
3.88451446e-07
6.27787002e-05
0.000249042079
3.98959926e-07
4.52923884e-05
0.000218734603
3.08948312e-07
3.06660921e-05
0.000199267474
1.1035283e-07
1.98544574e-05
0.000187024982
-2.01154058e-07
1.2647999e-05
0.000179286529
-6.28913431e-07
8.15470641e-06
0.000174258959
-1.17739803e-06
5.45032496e-06
0.000170843142
-1.85290625e-06
3.84469312e-06
0.000168403889
-2.66360008e-06
2.87834621e-06
0.000166592426
-3.61965256e-06
2.27000171e-06
0.000165225762
-4.7333307e-06
1.85992218e-06
0.000164215171
-6.01877782e-06
1.56110165e-06
0.000163527386
-7.49145811e-06
1.326866e-06
0.00016316466
-9.16704523e-06
1.13227109e-06
0.000163155511
-1.10593367e-05
9.63685506e-07
0.000163550865
-1.31767363e-05
8.13103606e-07
0.000164422529
-1.55166069e-05
6.75256125e-07
0.000165861387
-1.80565589e-05
5.46267811e-07
0.000167972207
-2.07418731e-05
4.23134106e-07
0.000170862698
-2.34688339e-05
3.03671276e-07
0.000174623554
-2.60647543e-05
1.86843949e-07
0.000179293732
-2.82648043e-05
7.3427576e-08
0.000184809158
-2.96951652e-05
-3.3005554e-08
0.000190939396
-2.9879166e-05
-1.24971764e-07
0.000197223116
-2.82847547e-05
-1.88663762e-07
-2.44660353e-05
-2.05708854e-07
0.000202954581
0.000434332543
5.14784493e-08
6.57232334e-05
0.000356469618
1.45976535e-07
7.80048907e-05
0.000293875629
1.82508786e-07
6.2799932e-05
0.000248813928
1.46713111e-07
4.53139488e-05
0.000218412231
2.49337621e-08
3.06857114e-05
0.000198843862
-1.93326567e-07
1.98720488e-05
0.000186493405
-5.14912929e-07
1.26642157e-05
0.00017863988
-9.4538627e-07
8.1699973e-06
0.000173489388
-1.49195932e-06
5.46505351e-06
0.000169941619
-2.16432843e-06
3.85919032e-06
0.000167359949
-2.97466672e-06
2.89273638e-06
0.000165394075
-3.93803048e-06
2.28425213e-06
0.000163859603
-5.07277736e-06
1.87391787e-06
0.00016266696
-6.40078869e-06
1.57465377e-06
0.000161783284
-7.94746124e-06
1.33967833e-06
0.000161213593
-9.74122793e-06
1.14387399e-06
0.000160993057
-1.18121414e-05
9.73339482e-07
0.000161185499
-1.41888546e-05
8.19675962e-07
0.000161884813
-1.6893e-05
6.77078974e-07
0.000163216919
-1.99296644e-05
5.40998929e-07
0.000165338658
-2.32712705e-05
4.07657916e-07
0.000168430353
-2.68346839e-05
2.74155015e-07
0.000172674379
-3.04479007e-05
1.39119706e-07
0.000178211048
-3.38053796e-05
3.90571667e-09
0.000185063043
-3.64217111e-05
-1.25450526e-07
0.000193020308
-3.75997358e-05
-2.36696795e-07
0.000201493126
-3.64526167e-05
-3.04958085e-07
-3.20977125e-05
-2.99351027e-07
0.000209424152
0.000434314645
7.77326087e-09
6.5729061e-05
0.000356405406
3.5674412e-08
7.80195413e-05
0.000293745175
2.3627076e-08
6.2819113e-05
0.000248604553
-4.613862e-08
4.53334747e-05
0.000218114774
-1.88946014e-07
3.07036593e-05
0.000198450292
-4.17074973e-07
1.988823e-05
0.000185995392
-7.39009824e-07
1.26789966e-05
0.000178028234
-1.16203886e-06
8.18381022e-06
0.000172753461
-1.69557106e-06
5.47838511e-06
0.000169068753
-2.35198119e-06
3.87236009e-06
0.000166335041
-3.1468077e-06
2.9058525e-06
0.000164199168
-4.09943567e-06
2.29727843e-06
0.000162473595
-5.23393411e-06
1.88672903e-06
0.000161065645
-6.57986985e-06
1.58703043e-06
0.000159940033
-8.17310382e-06
1.35125412e-06
0.000159101136
-1.0056368e-05
1.15403754e-06
0.000158587082
-1.22791742e-05
9.81086326e-07
0.000158471138
-1.48963162e-05
8.23404719e-07
0.000158867534
-1.79637298e-05
6.7433332e-07
0.00015993939
-2.15296927e-05
5.28172046e-07
0.000161906276
-2.56178821e-05
3.7972507e-07
0.000165045931
-3.01989628e-05
2.24623819e-07
0.000169679653
-3.51421398e-05
6.0516513e-08
0.000176127097
-4.01424342e-05
-1.10390896e-07
0.000184606673
-4.46246973e-05
-2.76590658e-07
0.00019504224
-4.76212036e-05
-4.14101572e-07
0.000206753564
-4.76945047e-05
-4.69439088e-07
-4.30879228e-05
-4.01729838e-07
0.0002181455
0.000434298354
-2.47045966e-08