/*--------------------------------*- C++ -*----------------------------------*\
| =========                 |                                                 |
| \\      /  F ield         | foam-extend: Open Source CFD                    |
|  \\    /   O peration     | Version:     4.1                                |
|   \\  /    A nd           | Web:         http://www.foam-extend.org         |
|    \\/     M anipulation  |                                                 |
\*---------------------------------------------------------------------------*/
FoamFile
{
    version     2.0;
    format      ascii;
    class       pointVectorField;
    location    "0.6";
    object      pointMotionU;
}
// * * * * * * * * * * * * * * * * * * * * * * * * * * * * * * * * * * * * * //

dimensions      [0 1 -1 0 0 0 0];

internalField   nonuniform List<vector> 
40832
(
(0 0 0)
(0 0 0)
(0 0 0)
(0 0 0)
(0 0 0)
(0 0 0)
(0 0 0)
(0 0 0)
(0 0 0)
(0 0 0)
(0 0 0)
(0 0 0)
(0 0 0)
(0 0 0)
(0 0 0)
(0 0 0)
(0 0 0)
(0 0 0)
(0 0 0)
(0 0 0)
(0 0 0)
(0 0 0)
(0 0 0)
(0 0 0)
(0 0 0)
(0 0 0)
(0 0 0)
(0 0 0)
(0 0 0)
(0 0 0)
(0 0 0)
(0 0 0)
(0 0 0)
(0 0 0)
(0 0 0)
(0 0 0)
(0 0 0)
(0 0 0)
(0 0 0)
(0 0 0)
(0 0 0)
(0 0 0)
(0 0 0)
(0 0 0)
(0 0 0)
(0 0 0)
(0 0 0)
(0 0 0)
(0 0 0)
(0 0 0)
(0 0 0)
(0 0 0)
(0 0 0)
(0 0 0)
(0 0 0)
(0 0 0)
(0 0 0)
(0 0 0)
(0 0 0)
(0 0 0)
(0 0 0)
(0 0 0)
(0 0 0)
(0 0 0)
(0 0 0)
(0 0 0)
(0 0 0)
(0 0 0)
(0 0 0)
(0 0 0)
(0 0 0)
(0 0 0)
(0 0 0)
(0 0 0)
(0 0 0)
(0 0 0)
(0 0 0)
(0 0 0)
(0 0 0)
(0 0 0)
(0 0 0)
(0 0 0)
(0 0 0)
(0 0 0)
(0 0 0)
(0 0 0)
(0 0 0)
(0 0 0)
(0 0 0)
(0 0 0)
(0 0 0)
(0 0 0)
(0 0 0)
(0 0 0)
(0 0 0)
(0 0 0)
(0 0 0)
(0 0 0)
(0 0 0)
(0 0 0)
(0 0 0)
(0 0 0)
(0 0 0)
(0 0 0)
(0 0 0)
(0 0 0)
(0 0 0)
(0 0 0)
(0 0 0)
(0 0 0)
(0 0 0)
(0 0 0)
(0 0 0)
(0 0 0)
(0 0 0)
(0 0 0)
(0 0 0)
(0 0 0)
(0 0 0)
(0 0 0)
(0 0 0)
(0 0 0)
(0 0 0)
(0 0 0)
(0 0 0)
(0 0 0)
(0 0 0)
(0 0 0)
(0 0 0)
(0 0 0)
(0 0 0)
(0 0 0)
(0 0 0)
(0 0 0)
(0 0 0)
(0 0 0)
(0 0 0)
(0 0 0)
(0 0 0)
(0 0 0)
(0 0 0)
(0 0 0)
(0 0 0)
(0 0 0)
(0 0 0)
(0 0 0)
(0 0 0)
(0 0 0)
(0 0 0)
(0 0 0)
(0 0 0)
(0 0 0)
(0 0 0)
(0 0 0)
(0 0 0)
(0 0 0)
(0 0 0)
(0 0 0)
(0 0 0)
(0 0 0)
(0 0 0)
(0 0 0)
(0 0 0)
(0 0 0)
(0 0 0)
(0 0 0)
(0 0 0)
(0 0 0)
(0 0 0)
(0 0 0)
(0 0 0)
(0 0 0)
(0 0 0)
(0 0 0)
(0 0 0)
(0 0 0)
(0 0 0)
(0 0 0)
(0 0 0)
(0 0 0)
(0 0 0)
(0 0 0)
(0 0 0)
(0 0 0)
(0 0 0)
(0 0 0)
(0 0 0)
(0 0 0)
(0 0 0)
(0 0 0)
(0 0 0)
(0 0 0)
(0 0 0)
(0 0 0)
(0 0 0)
(0 0 0)
(0 0 0)
(0 0 0)
(0 0 0)
(0 0 0)
(0 0 0)
(0 0 0)
(0 0 0)
(0 0 0)
(0 0 0)
(0 0 0)
(0 0 0)
(0 0 0)
(0 0 0)
(0 0 0)
(0 0 0)
(0 0 0)
(0 0 0)
(0 0 0)
(0 0 0)
(0 0 0)
(0 0 0)
(0 0 0)
(0 0 0)
(0 0 0)
(0 0 0)
(0 0 0)
(0 0 0)
(0 0 0)
(0 0 0)
(0 0 0)
(0 0 0)
(0 0 0)
(0 0 0)
(0 0 0)
(0 0 0)
(0 0 0)
(0 0 0)
(0 0 0)
(0 0 0)
(0 0 0)
(0 0 0)
(0 0 0)
(0 0 0)
(0 0 0)
(0 0 0)
(0 0 0)
(0 0 0)
(0 0 0)
(0 0 0)
(0 0 0)
(0 0 0)
(0 0 0)
(0 0 0)
(0 0 0)
(0 0 0)
(0 0 0)
(0 0 0)
(0 0 0)
(0 0 0)
(0 0 0)
(0 0 0)
(0 0 0)
(0 0 0)
(0 0 0)
(0 0 0)
(0 0 0)
(0 0 0)
(0 0 0)
(0 0 0)
(0 0 0)
(0 0 0)
(0 0 0)
(0 0 0)
(0 0 0)
(0 0 0)
(0 0 0)
(0 0 0)
(0 0 0)
(0 0 0)
(0 0 0)
(0 0 0)
(0 0 0)
(0 0 0)
(0 0 0)
(0 0 0)
(0 0 0)
(0 0 0)
(0 0 0)
(0 0 0)
(0 0 0)
(0 0 0)
(0 0 0)
(0 0 0)
(0 0 0)
(0 0 0)
(0 0 0)
(0 0 0)
(0 0 0)
(0 0 0)
(0 0 0)
(0 0 0)
(0 0 0)
(0 0 0)
(0 0 0)
(0 0 0)
(0 0 0)
(0 0 0)
(0 0 0)
(0 0 0)
(0 0 0)
(0 0 0)
(0 0 0)
(0 0 0)
(0 0 0)
(0 0 0)
(0 0 0)
(0 0 0)
(0 0 0)
(0 0 0)
(0 0 0)
(0 0 0)
(0 0 0)
(0 0 0)
(0 0 0)
(0 0 0)
(0 0 0)
(0 0 0)
(0 0 0)
(0 0 0)
(0 0 0)
(0 0 0)
(0 0 0)
(0 0 0)
(0 0 0)
(0 0 0)
(0 0 0)
(0 0 0)
(0 0 0)
(0 0 0)
(0 0 0)
(0 0 0)
(0 0 0)
(0 0 0)
(0 0 0)
(0 0 0)
(0 0 0)
(0 0 0)
(0 0 0)
(0 0 0)
(0 0 0)
(0 0 0)
(0 0 0)
(0 0 0)
(0 0 0)
(0 0 0)
(0 0 0)
(0 0 0)
(0 0 0)
(0 0 0)
(0 0 0)
(0 0 0)
(0 0 0)
(0 0 0)
(0 0 0)
(0 0 0)
(0 0 0)
(0 0 0)
(0 0 0)
(0 0 0)
(0 0 0)
(0 0 0)
(0 0 0)
(0 0 0)
(0 0 0)
(0 0 0)
(0 0 0)
(0 0 0)
(0 0 0)
(0 0 0)
(0 0 0)
(0 0 0)
(0 0 0)
(0 0 0)
(0 0 0)
(0 0 0)
(0 0 0)
(0 0 0)
(0 0 0)
(0 0 0)
(0 0 0)
(0 0 0)
(0 0 0)
(0 0 0)
(0 0 0)
(0 0 0)
(0 0 0)
(0 0 0)
(0 0 0)
(0 0 0)
(0 0 0)
(0 0 0)
(0 0 0)
(0 0 0)
(0 0 0)
(0 0 0)
(0 0 0)
(0 0 0)
(0 0 0)
(0 0 0)
(0 0 0)
(0 0 0)
(0 0 0)
(0 0 0)
(0 0 0)
(0 0 0)
(0 0 0)
(0 0 0)
(0 0 0)
(0 0 0)
(0 0 0)
(0 0 0)
(0 0 0)
(0 0 0)
(0 0 0)
(0 0 0)
(0 0 0)
(0 0 0)
(0 0 0)
(0 0 0)
(0 0 0)
(0 0 0)
(0 0 0)
(0 0 0)
(0 0 0)
(0 0 0)
(0 0 0)
(0 0 0)
(0 0 0)
(0 0 0)
(0 0 0)
(0 0 0)
(0 0 0)
(0 0 0)
(0 0 0)
(0 0 0)
(0 0 0)
(0 0 0)
(0 0 0)
(0 0 0)
(0 0 0)
(0 0 0)
(0 0 0)
(0 0 0)
(0 0 0)
(0 0 0)
(0 0 0)
(0 0 0)
(0 0 0)
(0 0 0)
(0 0 0)
(0 0 0)
(0 0 0)
(0 0 0)
(0 0 0)
(0 0 0)
(0 0 0)
(0 0 0)
(0 0 0)
(0 0 0)
(0 0 0)
(0 0 0)
(0 0 0)
(0 0 0)
(0 0 0)
(0 0 0)
(0 0 0)
(0 0 0)
(0 0 0)
(0 0 0)
(0 0 0)
(0 0 0)
(0 0 0)
(0 0 0)
(0 0 0)
(0 0 0)
(0 0 0)
(0 0 0)
(0 0 0)
(0 0 0)
(0 0 0)
(0 0 0)
(0 0 0)
(0 0 0)
(0 0 0)
(0 0 0)
(0 0 0)
(0 0 0)
(0 0 0)
(0 0 0)
(0 0 0)
(0 0 0)
(0 0 0)
(0 0 0)
(0 0 0)
(0 0 0)
(0 0 0)
(0 0 0)
(0 0 0)
(0 0 0)
(0 0 0)
(0 0 0)
(0 0 0)
(0 0 0)
(0 0 0)
(0 0 0)
(0 0 0)
(0 0 0)
(0 0 0)
(0 0 0)
(0 0 0)
(0 0 0)
(0 0 0)
(0 0 0)
(0 0 0)
(0 0 0)
(0 0 0)
(0 0 0)
(0 0 0)
(0 0 0)
(0 0 0)
(0 0 0)
(0 0 0)
(0 0 0)
(0 0 0)
(0 0 0)
(0 0 0)
(0 0 0)
(0 0 0)
(0 0 0)
(0 0 0)
(0 0 0)
(0 0 0)
(0 0 0)
(0 0 0)
(0 0 0)
(0 0 0)
(0 0 0)
(0 0 0)
(0 0 0)
(0 0 0)
(0 0 0)
(0 0 0)
(0 0 0)
(0 0 0)
(0 0 0)
(0 0 0)
(0 0 0)
(0 0 0)
(0 0 0)
(0 0 0)
(0 0 0)
(0 0 0)
(0 0 0)
(0 0 0)
(0 0 0)
(0 0 0)
(0 0 0)
(0 0 0)
(0 0 0)
(0 0 0)
(0 0 0)
(0 0 0)
(0 0 0)
(0 0 0)
(0 0 0)
(0 0 0)
(0 0 0)
(0 0 0)
(0 0 0)
(0 0 0)
(0 0 0)
(0 0 0)
(0 0 0)
(0 0 0)
(0 0 0)
(0 0 0)
(0 0 0)
(0 0 0)
(0 0 0)
(0 0 0)
(0 0 0)
(0 0 0)
(0 0 0)
(0 0 0)
(0 0 0)
(0 0 0)
(0 0 0)
(0 0 0)
(0 0 0)
(0 0 0)
(0 0 0)
(0 0 0)
(0 0 0)
(0 0 0)
(0 0 0)
(0 0 0)
(0 0 0)
(0 0 0)
(0 0 0)
(0 0 0)
(0 0 0)
(0 0 0)
(0 0 0)
(0 0 0)
(0 0 0)
(0 0 0)
(0 0 0)
(0 0 0)
(0 0 0)
(0 0 0)
(0 0 0)
(0 0 0)
(0 0 0)
(0 0 0)
(0 0 0)
(0 0 0)
(0 0 0)
(0 0 0)
(0 0 0)
(0 0 0)
(0 0 0)
(0 0 0)
(0 0 0)
(0 0 0)
(0 0 0)
(0 0 0)
(0 0 0)
(0 0 0)
(0 0 0)
(0 0 0)
(0 0 0)
(0 0 0)
(0 0 0)
(0 0 0)
(0 0 0)
(0 0 0)
(0 0 0)
(0 0 0)
(0 0 0)
(0 0 0)
(0 0 0)
(0 0 0)
(0 0 0)
(0 0 0)
(0 0 0)
(0 0 0)
(0 0 0)
(0 0 0)
(0 0 0)
(0 0 0)
(0 0 0)
(0 0 0)
(0 0 0)
(0 0 0)
(0 0 0)
(0 0 0)
(0 0 0)
(0 0 0)
(0 0 0)
(0 0 0)
(0 0 0)
(0 0 0)
(0 0 0)
(0 0 0)
(0 0 0)
(0 0 0)
(0 0 0)
(0 0 0)
(0 0 0)
(0 0 0)
(0 0 0)
(0 0 0)
(0 0 0)
(0 0 0)
(0 0 0)
(0 0 0)
(0 0 0)
(0 0 0)
(0 0 0)
(0 0 0)
(0 0 0)
(0 0 0)
(0 0 0)
(0 0 0)
(0 0 0)
(0 0 0)
(0 0 0)
(0 0 0)
(0 0 0)
(0 0 0)
(0 0 0)
(0 0 0)
(0 0 0)
(0 0 0)
(0 0 0)
(0 0 0)
(0 0 0)
(0 0 0)
(0 0 0)
(0 0 0)
(0 0 0)
(0 0 0)
(0 0 0)
(0 0 0)
(0 0 0)
(0 0 0)
(0 0 0)
(0 0 0)
(0 0 0)
(0 0 0)
(0 0 0)
(0 0 0)
(0 0 0)
(0 0 0)
(0 0 0)
(0 0 0)
(0 0 0)
(0 0 0)
(0 0 0)
(0 0 0)
(0 0 0)
(0 0 0)
(0 0 0)
(0 0 0)
(0 0 0)
(0 0 0)
(0 0 0)
(0 0 0)
(0 0 0)
(0 0 0)
(0 0 0)
(0 0 0)
(0 0 0)
(0 0 0)
(0 0 0)
(0 0 0)
(0 0 0)
(0 0 0)
(0 0 0)
(0 0 0)
(0 0 0)
(0 0 0)
(0 0 0)
(0 0 0)
(0 0 0)
(0 0 0)
(0 0 0)
(0 0 0)
(0 0 0)
(0 0 0)
(0 0 0)
(0 0 0)
(0 0 0)
(0 0 0)
(0 0 0)
(0 0 0)
(0 0 0)
(0 0 0)
(0 0 0)
(0 0 0)
(0 0 0)
(0 0 0)
(0 0 0)
(0 0 0)
(0 0 0)
(0 0 0)
(0 0 0)
(0 0 0)
(0 0 0)
(0 0 0)
(0 0 0)
(0 0 0)
(0 0 0)
(0 0 0)
(0 0 0)
(0 0 0)
(0 0 0)
(0 0 0)
(0 0 0)
(0 0 0)
(0 0 0)
(0 0 0)
(0 0 0)
(0 0 0)
(0 0 0)
(0 0 0)
(0 0 0)
(0 0 0)
(0 0 0)
(0 0 0)
(0 0 0)
(0 0 0)
(0 0 0)
(0 0 0)
(0 0 0)
(0 0 0)
(0 0 0)
(0 0 0)
(0 0 0)
(0 0 0)
(0 0 0)
(0 0 0)
(0 0 0)
(0 0 0)
(0 0 0)
(0 0 0)
(0 0 0)
(0 0 0)
(0 0 0)
(0 0 0)
(0 0 0)
(0 0 0)
(0 0 0)
(0 0 0)
(0 0 0)
(0 0 0)
(0 0 0)
(0 0 0)
(0 0 0)
(0 0 0)
(0 0 0)
(0 0 0)
(0 0 0)
(0 0 0)
(0 0 0)
(0 0 0)
(0 0 0)
(0 0 0)
(0 0 0)
(0 0 0)
(0 0 0)
(0 0 0)
(0 0 0)
(0 0 0)
(0 0 0)
(0 0 0)
(0 0 0)
(0 0 0)
(0 0 0)
(0 0 0)
(0 0 0)
(0 0 0)
(0 0 0)
(0 0 0)
(0 0 0)
(0 0 0)
(0 0 0)
(0 0 0)
(0 0 0)
(0 0 0)
(0 0 0)
(0 0 0)
(0 0 0)
(0 0 0)
(0 0 0)
(0 0 0)
(0 0 0)
(0 0 0)
(0 0 0)
(0 0 0)
(0 0 0)
(0 0 0)
(0 0 0)
(0 0 0)
(0 0 0)
(-1.01160348e-20 1.06859002e-08 -1.92369655e-21)
(-2.04400686e-20 2.15914455e-08 -3.88693906e-21)
(-3.13561505e-20 3.31222064e-08 -5.96275052e-21)
(-4.33310248e-20 4.57710784e-08 -8.23987678e-21)
(-5.68270972e-20 6.00263661e-08 -1.08062341e-20)
(-7.230833e-20 7.63779872e-08 -1.37500282e-20)
(-9.02429103e-20 9.5320273e-08 -1.71602589e-20)
(-1.11102084e-19 1.17350718e-07 -2.11264958e-20)
(-1.35354595e-19 1.42964085e-07 -2.57378179e-20)
(-1.63456239e-19 1.7264136e-07 -3.10808235e-20)
(-1.95834175e-19 2.06833161e-07 -3.7236644e-20)
(-2.32865854e-19 2.45937491e-07 -4.42769348e-20)
(-2.74852789e-19 2.9027204e-07 -5.22588865e-20)
(-3.21989837e-19 3.40041783e-07 -6.12193861e-20)
(-3.74331304e-19 3.95303234e-07 -7.11685766e-20)
(-4.31755838e-19 4.5592745e-07 -8.20831916e-20)
(-4.93932829e-19 5.21564646e-07 -9.39001823e-20)
(-5.60293688e-19 5.91613982e-07 -1.06511278e-19)
(-6.30011871e-19 6.65202576e-07 -1.19759214e-19)
(-7.0199564e-19 7.41177973e-07 -1.33436385e-19)
(-7.74897285e-19 8.18117948e-07 -1.47286629e-19)
(-8.47141623e-19 8.94360635e-07 -1.61010669e-19)
(-9.16975122e-19 9.68056366e-07 -1.74275464e-19)
(-9.82535026e-19 1.03724057e-06 -1.86727356e-19)
(-1.04193552e-18 1.0999246e-06 -1.9800842e-19)
(-1.09336573e-18 1.154199e-06 -2.07775057e-19)
(-1.13519249e-18 1.19834176e-06 -2.15717473e-19)
(-1.1660602e-18 1.23092355e-06 -2.21578589e-19)
(0 0 0)
(-2.04431784e-20 2.15947324e-08 -3.88753042e-21)
(-4.13012553e-20 4.36275771e-08 -7.85394206e-21)
(-6.33561056e-20 6.69242181e-08 -1.20478988e-20)
(-8.75611344e-20 9.24914715e-08 -1.66506771e-20)
(-1.1486086e-19 1.2132674e-07 -2.18418533e-20)
(-1.46203819e-19 1.54431593e-07 -2.78017528e-20)
(-1.82548695e-19 1.92818208e-07 -3.47126108e-20)
(-2.24862537e-19 2.37507436e-07 -4.27582254e-20)
(-2.74109915e-19 2.89517307e-07 -5.21218894e-20)
(-3.31231998e-19 3.49840899e-07 -6.29824037e-20)
(-3.97114767e-19 4.19412732e-07 -7.55080254e-20)
(-4.7254602e-19 4.99063356e-07 -8.98482856e-20)
(-5.58161518e-19 5.89462506e-07 -1.06123746e-19)
(-6.54381585e-19 6.91052219e-07 -1.24413949e-19)
(-7.61340747e-19 8.03972645e-07 -1.44744044e-19)
(-8.78814398e-19 9.27984788e-07 -1.67070873e-19)
(-1.00614806e-18 1.06239602e-06 -1.91269551e-19)
(-1.14219626e-18 1.20599579e-06 -2.1712189e-19)
(-1.28527901e-18 1.35700993e-06 -2.44308198e-19)
(-1.43316451e-18 1.51308261e-06 -2.7240405e-19)
(-1.58308584e-18 1.67129416e-06 -3.00883544e-19)
(-1.73179801e-18 1.82822133e-06 -3.29130196e-19)
(-1.87567832e-18 1.98004325e-06 -3.56456068e-19)
(-2.01086909e-18 2.12269186e-06 -3.8212889e-19)
(-2.13345663e-18 2.25204066e-06 -4.05406047e-19)
(-2.23967563e-18 2.36411992e-06 -4.25573324e-19)
(-2.32612368e-18 2.45534275e-06 -4.41985545e-19)
(-2.38996857e-18 2.5227234e-06 -4.54105812e-19)
(0 0 0)
(-3.1365729e-20 3.31323321e-08 -5.96457197e-21)
(-6.3365876e-20 6.69345484e-08 -1.20497567e-20)
(-9.72182615e-20 1.02692683e-07 -1.84871035e-20)
(-1.34413231e-19 1.41980544e-07 -2.55599747e-20)
(-1.76428981e-19 1.86359038e-07 -3.3549404e-20)
(-2.24753618e-19 2.37399392e-07 -4.27382831e-20)
(-2.80896448e-19 2.96695001e-07 -5.34134976e-20)
(-3.4638671e-19 3.65860017e-07 -6.58656743e-20)
(-4.22757959e-19 4.46512773e-07 -8.03861971e-20)
(-5.11516365e-19 5.4024223e-07 -9.72611634e-20)
(-6.14091542e-19 6.48556003e-07 -1.16762019e-19)
(-7.31769149e-19 7.7280917e-07 -1.3913273e-19)
(-8.65605554e-19 9.14114203e-07 -1.64573546e-19)
(-1.01632637e-18 1.07323395e-06 -1.9322171e-19)
(-1.18421266e-18 1.25046169e-06 -2.25129844e-19)
(-1.36898105e-18 1.44549485e-06 -2.60243182e-19)
(-1.56966639e-18 1.65731151e-06 -2.98377338e-19)
(-1.78451844e-18 1.88406174e-06 -3.39198746e-19)
(-2.01092563e-18 2.1229876e-06 -3.8221029e-19)
(-2.24538017e-18 2.37038667e-06 -4.26744819e-19)
(-2.48349814e-18 2.62163357e-06 -4.71969096e-19)
(-2.72010531e-18 2.87127072e-06 -5.1690026e-19)
(-2.94939489e-18 3.11317478e-06 -5.60435892e-19)
(-3.16515626e-18 3.34079775e-06 -6.01397496e-19)
(-3.36106522e-18 3.54747286e-06 -6.38585596e-19)
(-3.53101785e-18 3.72676628e-06 -6.70843e-19)
(-3.66948241e-18 3.87284773e-06 -6.97121408e-19)
(-3.77183888e-18 3.98084801e-06 -7.16545614e-19)
(0 0 0)
(-4.33495858e-20 4.57907037e-08 -8.24340635e-21)
(-8.75856013e-20 9.25173464e-08 -1.66553297e-20)
(-1.34430278e-19 1.41998577e-07 -2.55632164e-20)
(-1.85997768e-19 1.96466869e-07 -3.53690224e-20)
(-2.44390242e-19 2.581419e-07 -4.64723956e-20)
(-3.1173267e-19 3.29267152e-07 -5.92772728e-20)
(-3.90192072e-19 4.12130124e-07 -7.41955238e-20)
(-4.81978718e-19 5.09063464e-07 -9.16471573e-20)
(-5.89326558e-19 6.22424174e-07 -1.12056573e-19)
(-7.14450193e-19 7.54548041e-07 -1.35844353e-19)
(-8.5947604e-19 9.07676873e-07 -1.63414137e-19)
(-1.02634614e-18 1.08385689e-06 -1.95134311e-19)
(-1.21669443e-18 1.2848082e-06 -2.31314462e-19)
(-1.43169759e-18 1.51176745e-06 -2.72177005e-19)
(-1.67190524e-18 1.76530899e-06 -3.17824938e-19)
(-1.93705834e-18 2.04515358e-06 -3.6820736e-19)
(-2.22590807e-18 2.34997788e-06 -4.23085162e-19)
(-2.53605225e-18 2.67724247e-06 -4.82000087e-19)
(-2.86380913e-18 3.02305937e-06 -5.44250967e-19)
(-3.20415102e-18 3.38212261e-06 -6.08881368e-19)
(-3.55071923e-18 3.74772453e-06 -6.74682729e-19)
(-3.89593899e-18 4.11187721e-06 -7.40216457e-19)
(-4.23124521e-18 4.46555072e-06 -8.03857037e-19)
(-4.54741971e-18 4.79902848e-06 -8.63856165e-19)
(-4.83502684e-18 5.10236623e-06 -9.184254e-19)
(-5.0849203e-18 5.36592582e-06 -9.6583215e-19)
(-5.28878128e-18 5.5809419e-06 -1.00450139e-18)
(-5.43963924e-18 5.74007017e-06 -1.03311399e-18)
(0 0 0)
(-5.68567366e-20 6.00577112e-08 -1.08118703e-20)
(-1.14904155e-19 1.21372536e-07 -2.18500861e-20)
(-1.76469201e-19 1.86401595e-07 -3.35570522e-20)
(-2.44415377e-19 2.58168503e-07 -4.64771751e-20)
(-3.21600338e-19 3.39690432e-07 -6.11536995e-20)
(-4.10928701e-19 4.34033669e-07 -7.81387244e-20)
(-5.15383552e-19 5.44346695e-07 -9.79991636e-20)
(-6.3803319e-19 6.73867086e-07 -1.21317989e-19)
(-7.82009092e-19 8.25898038e-07 -1.48689996e-19)
(-9.50451056e-19 1.00375024e-06 -1.80711316e-19)
(-1.14641569e-18 1.21064513e-06 -2.17961961e-19)
(-1.37274524e-18 1.44957634e-06 -2.60980825e-19)
(-1.63189552e-18 1.7231282e-06 -3.10232923e-19)
(-1.92572465e-18 2.03325306e-06 -3.66069208e-19)
(-2.25524847e-18 2.38101363e-06 -4.28680092e-19)
(-2.62037375e-18 2.76630223e-06 -4.98044825e-19)
(-3.01962657e-18 3.18755506e-06 -5.73880037e-19)
(-3.44989959e-18 3.64148666e-06 -6.55591998e-19)
(-3.90624799e-18 4.12287559e-06 -7.42238228e-19)
(-4.38176764e-18 4.62443694e-06 -8.32504859e-19)
(-4.86758998e-18 5.13681754e-06 -9.24706207e-19)
(-5.35302361e-18 5.64874575e-06 -1.01681223e-18)
(-5.82586292e-18 6.1473568e-06 -1.10650757e-18)
(-6.27286778e-18 6.61869833e-06 -1.19128287e-18)
(-6.68039781e-18 7.04839834e-06 -1.26855506e-18)
(-7.03516155e-18 7.42245413e-06 -1.33580909e-18)
(-7.32501994e-18 7.72807832e-06 -1.39074961e-18)
(-7.53976857e-18 7.95452229e-06 -1.43144827e-18)
(0 0 0)
(-7.23510471e-20 7.64231711e-08 -1.37581511e-20)
(-1.46270112e-19 1.54501731e-07 -2.78143588e-20)
(-2.24823465e-19 2.37473312e-07 -4.27515647e-20)
(-3.11791582e-19 3.29329518e-07 -5.92884749e-20)
(-4.10964516e-19 4.34071594e-07 -7.81455344e-20)
(-5.26220243e-19 5.5579283e-07 -1.00059784e-19)
(-6.61574683e-19 6.98731063e-07 -1.25794317e-19)
(-8.21198775e-19 8.67286378e-07 -1.56141462e-19)
(-1.00939663e-18 1.0659977e-06 -1.91918545e-19)
(-1.23053888e-18 1.29947211e-06 -2.33955114e-19)
(-1.48894515e-18 1.5722606e-06 -2.83070491e-19)
(-1.78871019e-18 1.88867446e-06 -3.40040598e-19)
(-2.13347029e-18 2.25253897e-06 -4.0555345e-19)
(-2.52611039e-18 2.6668848e-06 -4.80153413e-19)
(-2.96841806e-18 3.13358376e-06 -5.64175444e-19)
(-3.46069814e-18 3.65294335e-06 -6.57671965e-19)
(-4.00137094e-18 4.22328429e-06 -7.60336786e-19)
(-4.58658705e-18 4.8405358e-06 -8.71432404e-19)
(-5.20990167e-18 5.49789355e-06 -9.89728839e-19)
(-5.8620589e-18 6.18559353e-06 -1.11346358e-18)
(-6.53093939e-18 6.89085765e-06 -1.24033274e-18)
(-7.20172068e-18 7.59806325e-06 -1.36752256e-18)
(-7.85728597e-18 8.2891739e-06 -1.49178796e-18)
(-8.47889375e-18 8.94444464e-06 -1.60958015e-18)
(-9.04708882e-18 9.54338136e-06 -1.71721937e-18)
(-9.54279862e-18 1.0065895e-05 -1.81110205e-18)
(-9.94852367e-18 1.0493555e-05 -1.88792504e-18)
(-1.02495057e-17 1.08108191e-05 -1.94490496e-18)
(0 0 0)
(-9.03007301e-20 9.53814424e-08 -1.71712534e-20)
(-1.82642965e-19 1.92917962e-07 -3.47305362e-20)
(-2.81004402e-19 2.96809267e-07 -5.34340247e-20)
(-3.90296454e-19 4.1224064e-07 -7.42153713e-20)
(-5.15469584e-19 5.44437806e-07 -9.80155214e-20)
(-6.6162716e-19 6.98786652e-07 -1.25804295e-19)
(-8.34102852e-19 8.80914458e-07 -1.58595012e-19)
(-1.03849555e-18 1.09672626e-06 -1.97451021e-19)
(-1.28065215e-18 1.35238614e-06 -2.43482275e-19)
(-1.56659028e-18 1.65423523e-06 -2.97830466e-19)
(-1.90235193e-18 2.00863695e-06 -3.61640992e-19)
(-2.29377809e-18 2.42173911e-06 -4.36019894e-19)
(-2.7461974e-18 2.89914573e-06 -5.21974454e-19)
(-3.26402615e-18 3.44549589e-06 -6.20337013e-19)
(-3.8502851e-18 4.06395526e-06 -7.31673097e-19)
(-4.50604904e-18 4.75563729e-06 -8.56176959e-19)
(-5.22985834e-18 5.51898461e-06 -9.93560211e-19)
(-6.01713746e-18 6.34915802e-06 -1.14294218e-18)
(-6.85968119e-18 7.23749676e-06 -1.30275358e-18)
(-7.74528351e-18 8.17112876e-06 -1.47066777e-18)
(-8.65759142e-18 9.13281753e-06 -1.64357503e-18)
(-9.57626358e-18 1.01011296e-05 -1.81761488e-18)
(-1.04774962e-17 1.10509882e-05 -1.98827772e-18)
(-1.13349455e-17 1.19546448e-05 -2.15058108e-18)
(-1.21210269e-17 1.27830462e-05 -2.29931591e-18)
(-1.2808513e-17 1.35075178e-05 -2.42934812e-18)
(-1.33722944e-17 1.41016167e-05 -2.53594927e-18)
(-1.37911239e-17 1.4542969e-05 -2.61512293e-18)
(0 0 0)
(-1.11176554e-19 1.17429516e-07 -2.11406559e-20)
(-2.2499116e-19 2.37643557e-07 -4.2782682e-20)
(-3.46545611e-19 3.6602822e-07 -6.58958875e-20)
(-4.82146811e-19 5.09241441e-07 -9.16791174e-20)
(-6.38191971e-19 6.74035246e-07 -1.21348178e-19)
(-8.21329267e-19 8.67424616e-07 -1.56166271e-19)
(-1.03857498e-18 1.09681042e-06 -1.9746612e-19)
(-1.29737864e-18 1.37004746e-06 -2.4666216e-19)
(-1.60561703e-18 1.69543731e-06 -3.05249139e-19)
(-1.97150957e-18 2.08163852e-06 -3.74785724e-19)
(-2.40344211e-18 2.53748015e-06 -4.56860612e-19)
(-2.90968119e-18 3.07166051e-06 -5.53037807e-19)
(-3.49796594e-18 3.69231718e-06 -6.64778618e-19)
(-4.17496925e-18 4.40646004e-06 -7.93338894e-19)
(-4.94563076e-18 5.21926973e-06 -9.39642086e-19)
(-5.81237826e-18 6.13327926e-06 -1.10413147e-18)
(-6.77427386e-18 7.14747654e-06 -1.28660856e-18)
(-7.82614382e-18 8.25638989e-06 -1.48606928e-18)
(-8.95777711e-18 9.44924552e-06 -1.70055391e-18)
(-1.0153302e-17 1.07093122e-05 -1.92703196e-18)
(-1.13908672e-17 1.20135656e-05 -2.16134554e-18)
(-1.26427549e-17 1.33328076e-05 -2.39823508e-18)
(-1.38760344e-17 1.46323532e-05 -2.63146725e-18)
(-1.50538164e-17 1.58733514e-05 -2.85407541e-18)
(-1.61370962e-17 1.70147245e-05 -3.05870926e-18)
(-1.7087079e-17 1.80156167e-05 -3.23807274e-18)
(-1.78677871e-17 1.88381398e-05 -3.38541201e-18)
(-1.84486684e-17 1.94501202e-05 -3.49500118e-18)
(0 0 0)
(-1.35444141e-19 1.43058859e-07 -2.57548438e-20)
(-2.74280601e-19 2.89697961e-07 -5.21543422e-20)
(-4.22988862e-19 4.46757187e-07 -8.04300983e-20)
(-5.8958839e-19 6.22701383e-07 -1.12106353e-19)
(-7.82278052e-19 8.26182868e-07 -1.48741129e-19)
(-1.00964801e-18 1.06626399e-06 -1.91966333e-19)
(-1.2808542e-18 1.35260027e-06 -2.43520682e-19)
(-1.60573757e-18 1.69556514e-06 -3.05272051e-19)
(-1.99483587e-18 2.10626138e-06 -3.79219266e-19)
(-2.45929808e-18 2.59642998e-06 -4.67475284e-19)
(-3.01068231e-18 3.17823658e-06 -5.7222809e-19)
(-3.66060219e-18 3.86389876e-06 -6.95672697e-19)
(-4.42020173e-18 4.66513331e-06 -8.39910502e-19)
(-5.29943945e-18 5.5924035e-06 -1.00681247e-18)
(-6.30617817e-18 6.65396232e-06 -1.19784571e-18)
(-7.44509513e-18 7.85470711e-06 -1.41386642e-18)
(-8.71645472e-18 9.19488964e-06 -1.65488771e-18)
(-1.01148186e-17 1.066876e-05 -1.9198369e-18)
(-1.16278091e-17 1.22632656e-05 -2.20632463e-18)
(-1.32350833e-17 1.39569718e-05 -2.51045591e-18)
(-1.490771e-17 1.57194044e-05 -2.82671928e-18)
(-1.66081523e-17 1.75110307e-05 -3.14799202e-18)
(-1.82910397e-17 1.92840699e-05 -3.46569444e-18)
(-1.99048489e-17 2.09842615e-05 -3.77011422e-18)
(-2.13945032e-17 2.2553602e-05 -4.05090021e-18)
(-2.27047542e-17 2.39339052e-05 -4.29769791e-18)
(-2.37840471e-17 2.50708734e-05 -4.50086977e-18)
(-2.45884372e-17 2.59182237e-05 -4.65221964e-18)
(0 0 0)
(-1.63546127e-19 1.72736559e-07 -3.10979124e-20)
(-3.31451784e-19 3.50073544e-07 -6.30241891e-20)
(-5.11856821e-19 5.40602561e-07 -9.73258897e-20)
(-7.14855082e-19 7.54976651e-07 -1.35921326e-19)
(-9.50892378e-19 1.00421754e-06 -1.80795212e-19)
(-1.23098639e-18 1.29994611e-06 -2.3404018e-19)
(-1.56698877e-18 1.65465756e-06 -2.97906208e-19)
(-1.97181843e-18 2.08196612e-06 -3.74844421e-19)
(-2.45948157e-18 2.59662478e-06 -4.6751015e-19)
(-3.04499636e-18 3.21444491e-06 -5.7874764e-19)
(-3.74418322e-18 3.95207482e-06 -7.11548968e-19)
(-4.57323692e-18 4.82654927e-06 -8.68971254e-19)
(-5.54806658e-18 5.85459562e-06 -1.05400963e-18)
(-6.68335818e-18 7.05164873e-06 -1.26941753e-18)
(-7.99134891e-18 8.43056333e-06 -1.51747259e-18)
(-9.48031784e-18 1.0000028e-05 -1.79968958e-18)
(-1.11528413e-17 1.17627312e-05 -2.11649025e-18)
(-1.30039003e-17 1.37133705e-05 -2.46684753e-18)
(-1.50189936e-17 1.58366658e-05 -2.84793391e-18)
(-1.71724793e-17 1.81056125e-05 -3.25481728e-18)
(-1.94264336e-17 2.04802765e-05 -3.68025835e-18)
(-2.17303456e-17 2.29074697e-05 -4.11466926e-18)
(-2.4021956e-17 2.53216289e-05 -4.54628887e-18)
(-2.62294645e-17 2.76471383e-05 -4.96161344e-18)
(-2.82751719e-17 2.98021633e-05 -5.34609034e-18)
(-3.00803904e-17 3.17038227e-05 -5.68503905e-18)
(-3.15711875e-17 3.3274239e-05 -5.96471548e-18)
(-3.26842884e-17 3.44467585e-05 -6.1733946e-18)
(0 0 0)
(-1.95838402e-19 2.06837969e-07 -3.72374419e-20)
(-3.97383445e-19 4.1969718e-07 -7.55591001e-20)
(-6.14619819e-19 6.49114975e-07 -1.16862447e-19)
(-8.60100248e-19 9.08337537e-07 -1.63532797e-19)
(-1.14712755e-18 1.21139875e-06 -2.18097275e-19)
(-1.48972549e-18 1.57308693e-06 -2.83218811e-19)
(-1.90307374e-18 2.00940188e-06 -3.61778173e-19)
(-2.40405297e-18 2.53812818e-06 -4.56976687e-19)
(-3.01115945e-18 3.1787433e-06 -5.72318736e-19)
(-3.74446848e-18 3.95237811e-06 -7.11603147e-19)
(-4.62548094e-18 4.88165524e-06 -8.7889185e-19)
(-5.67660236e-18 5.99014159e-06 -1.07840825e-18)
(-6.92034545e-18 7.30151103e-06 -1.31438264e-18)
(-8.37811828e-18 8.83827212e-06 -1.59081879e-18)
(-1.00686004e-17 1.06200627e-05 -1.91118273e-18)
(-1.20056753e-17 1.26614772e-05 -2.27800864e-18)
(-1.41959836e-17 1.49694935e-05 -2.69243522e-18)
(-1.66361791e-17 1.75405847e-05 -3.15369009e-18)
(-1.93100803e-17 2.03577183e-05 -3.65856043e-18)
(-2.21860345e-17 2.33875761e-05 -4.20091119e-18)
(-2.52149139e-17 2.65784382e-05 -4.77133127e-18)
(-2.83292451e-17 2.98592598e-05 -5.35700044e-18)
(-3.14439765e-17 3.31404737e-05 -5.94186805e-18)
(-3.44592964e-17 3.63169548e-05 -6.50721376e-18)
(-3.72656875e-17 3.92733425e-05 -7.03261545e-18)
(-3.97510432e-17 4.18915381e-05 -7.49728169e-18)
(-4.18092207e-17 4.40597171e-05 -7.8816259e-18)
(-4.33489785e-17 4.56817488e-05 -8.16888754e-18)
(0 0 0)
(-2.32915917e-19 2.45990829e-07 -4.42864456e-20)
(-4.72912593e-19 4.99451449e-07 -8.99179686e-20)
(-7.32360806e-19 7.73435517e-07 -1.39245202e-19)
(-1.02708876e-18 1.08464326e-06 -1.95275469e-19)
(-1.3738614e-18 1.45075777e-06 -2.61192969e-19)
(-1.79009142e-18 1.89013654e-06 -3.40303102e-19)
(-2.29503357e-18 2.42306937e-06 -4.3625847e-19)
(-2.91077462e-18 3.07282052e-06 -5.53245542e-19)
(-3.66157012e-18 3.86492676e-06 -6.9585654e-19)
(-4.57399307e-18 4.82735346e-06 -8.69114823e-19)
(-5.67706504e-18 5.99063424e-06 -1.07849606e-18)
(-7.00151379e-18 7.38709151e-06 -1.32978243e-18)
(-8.57891326e-18 9.04993558e-06 -1.62889356e-18)
(-1.04401131e-17 1.10116168e-05 -1.98158199e-18)
(-1.26131428e-17 1.33016251e-05 -2.39302925e-18)
(-1.51203994e-17 1.59435335e-05 -2.86730771e-18)
(-1.7975279e-17 1.89514544e-05 -3.40674102e-18)
(-2.11782524e-17 2.23259052e-05 -4.01116642e-18)
(-2.47126163e-17 2.60493292e-05 -4.67714657e-18)
(-2.85403631e-17 3.00817375e-05 -5.39721827e-18)
(-3.25987763e-17 3.43571127e-05 -6.1592949e-18)
(-3.67985177e-17 3.87813854e-05 -6.94636563e-18)
(-4.10240272e-17 4.32328472e-05 -7.73663843e-18)
(-4.51369661e-17 4.75657749e-05 -8.50425058e-18)
(-4.89831381e-17 5.16177213e-05 -9.22060746e-18)
(-5.24027674e-17 5.52203458e-05 -9.85630548e-18)
(-5.5243261e-17 5.82128656e-05 -1.03834619e-17)
(-5.73728155e-17 6.04563962e-05 -1.07781475e-17)
(0 0 0)
(-2.75035104e-19 2.90465269e-07 -5.22935444e-20)
(-5.58586823e-19 5.8991307e-07 -1.06204597e-19)
(-8.66199002e-19 9.14743139e-07 -1.64686355e-19)
(-1.21760746e-18 1.28577551e-06 -2.31488005e-19)
(-1.63337028e-18 1.72468974e-06 -3.10513217e-19)
(-2.13512242e-18 2.25428928e-06 -4.05867432e-19)
(-2.74776941e-18 2.90081321e-06 -5.22273137e-19)
(-3.49978796e-18 3.69425017e-06 -6.65124689e-19)
(-4.42202424e-18 4.6670684e-06 -8.40256565e-19)
(-5.54962125e-18 5.85624893e-06 -1.0543047e-18)
(-6.92160329e-18 7.30285033e-06 -1.31462126e-18)
(-8.57964456e-18 9.05071561e-06 -1.6290322e-18)
(-1.05676534e-17 1.1146043e-05 -2.00574806e-18)
(-1.29295559e-17 1.36350606e-05 -2.45293118e-18)
(-1.57067768e-17 1.6561381e-05 -2.97820514e-18)
(-1.89343584e-17 1.99619206e-05 -3.58790821e-18)
(-2.26364801e-17 2.3862181e-05 -4.28623888e-18)
(-2.68209307e-17 2.82704227e-05 -5.07421515e-18)
(-3.14728391e-17 3.31710508e-05 -5.94851283e-18)
(-3.65483024e-17 3.85178905e-05 -6.90031182e-18)
(-4.19687463e-17 4.42282316e-05 -7.91431375e-18)
(-4.76171809e-17 5.01788727e-05 -8.96814998e-18)
(-5.33376503e-17 5.62055346e-05 -1.00324128e-17)
(-5.89391447e-17 6.21069801e-05 -1.10715218e-17)
(-6.4204887e-17 6.76548017e-05 -1.20455539e-17)
(-6.89070936e-17 7.26089787e-05 -1.29130098e-17)
(-7.28260503e-17 7.67379845e-05 -1.36342622e-17)
(-7.57709558e-17 7.98407539e-05 -1.41752148e-17)
(0 0 0)
(-3.22175243e-19 3.40238598e-07 -6.1254633e-20)
(-6.5477622e-19 6.91471063e-07 -1.2448897e-19)
(-1.01695882e-18 1.07390516e-06 -1.93341934e-19)
(-1.43270446e-18 1.51283553e-06 -2.72368388e-19)
(-1.92714464e-18 2.03475928e-06 -3.66339093e-19)
(-2.52764031e-18 2.66850962e-06 -4.80444158e-19)
(-3.26584535e-18 3.44742892e-06 -6.20682625e-19)
(-4.17718915e-18 4.40881932e-06 -7.93760519e-19)
(-5.30182626e-18 5.59494246e-06 -1.00726557e-18)
(-6.68623352e-18 7.05470555e-06 -1.26996301e-18)
(-8.38083684e-18 8.84116468e-06 -1.59133426e-18)
(-1.04420732e-17 1.10137073e-05 -1.9819533e-18)
(-1.29306967e-17 1.36362793e-05 -2.45314708e-18)
(-1.59083627e-17 1.67737976e-05 -3.01632452e-18)
(-1.94355411e-17 2.04899631e-05 -3.68255643e-18)
(-2.3565596e-17 2.48410292e-05 -4.46143005e-18)
(-2.83393707e-17 2.98700941e-05 -5.36000709e-18)
(-3.37774909e-17 3.55989823e-05 -6.38136913e-18)
(-3.98711846e-17 4.20185573e-05 -7.52291582e-18)
(-4.65726285e-17 4.90785323e-05 -8.77462404e-18)
(-5.37858018e-17 5.66778173e-05 -1.01174678e-17)
(-6.13596434e-17 6.46572994e-05 -1.15223425e-17)
(-6.90854863e-17 7.27971363e-05 -1.29498482e-17)
(-7.67009027e-17 8.08208109e-05 -1.43512852e-17)
(-8.39017838e-17 8.84078674e-05 -1.56711202e-17)
(-9.03633365e-17 9.52160445e-05 -1.68509435e-17)
(-9.57686232e-17 0.000100911355 -1.78345756e-17)
(-9.98407215e-17 0.000105201978 -1.85735793e-17)
(0 0 0)
(-3.74505317e-19 3.95488464e-07 -7.12016579e-20)
(-7.6170267e-19 8.04357899e-07 -1.44812847e-19)
(-1.18479119e-18 1.2510776e-06 -2.25239818e-19)
(-1.67275584e-18 1.76621464e-06 -3.17986617e-19)
(-2.2564011e-18 2.38224141e-06 -4.28899157e-19)
(-2.96986783e-18 3.13512935e-06 -5.64450934e-19)
(-3.85222712e-18 4.06602535e-06 -7.32042028e-19)
(-4.94788006e-18 5.22167005e-06 -9.40069276e-19)
(-6.30905822e-18 6.65703423e-06 -1.19839235e-18)
(-7.99491941e-18 8.4343695e-06 -1.51814995e-18)
(-1.00722135e-17 1.06239184e-05 -1.91186749e-18)
(-1.26171798e-17 1.33059278e-05 -2.39379328e-18)
(-1.57099012e-17 1.6564716e-05 -2.9787958e-18)
(-1.94368184e-17 2.04913365e-05 -3.68279716e-18)
(-2.3885841e-17 2.51784371e-05 -4.52180065e-18)
(-2.91358839e-17 3.07092372e-05 -5.50986064e-18)
(-3.52528676e-17 3.71533039e-05 -6.65828411e-18)
(-4.22787393e-17 4.45549658e-05 -7.97354106e-18)
(-5.02180194e-17 5.29191149e-05 -9.45476267e-18)
(-5.90235834e-17 6.21962033e-05 -1.10911852e-17)
(-6.85820523e-17 7.22668347e-05 -1.28596458e-17)
(-7.87019115e-17 8.2929241e-05 -1.47227373e-17)
(-8.91070779e-17 9.38925075e-05 -1.66281176e-17)
(-9.9439389e-17 0.000104779208 -1.85095463e-17)
(-1.09273517e-16 0.000115141134 -2.02901383e-17)
(-1.1814638e-16 0.000124490291 -2.18879916e-17)
(-1.25599792e-16 0.000132343855 -2.322374e-17)
(-1.31230508e-16 0.000138276897 -2.42288764e-17)
(0 0 0)
(-4.3191372e-19 4.56096282e-07 -8.2113206e-20)
(-8.79139171e-19 9.28332182e-07 -1.67132613e-19)
(-1.36949368e-18 1.4460435e-06 -2.60340629e-19)
(-1.93779273e-18 2.04594019e-06 -3.68346948e-19)
(-2.62136557e-18 2.76736574e-06 -4.98233318e-19)
(-3.46199291e-18 3.65433333e-06 -6.57917987e-19)
(-4.50774792e-18 4.75746208e-06 -8.56499679e-19)
(-5.81457721e-18 6.13564152e-06 -1.10454902e-18)
(-7.4481534e-18 7.85798642e-06 -1.41444686e-18)
(-9.48377654e-18 1.00037406e-05 -1.80034571e-18)
(-1.2009915e-17 1.2666022e-05 -2.27881188e-18)
(-1.51251835e-17 1.59486571e-05 -2.86821328e-18)
(-1.89379411e-17 1.99657763e-05 -3.58858457e-18)
(-2.3568537e-17 2.48441957e-05 -4.46198223e-18)
(-2.91388106e-17 3.07123616e-05 -5.51040893e-18)
(-3.57638119e-17 3.7691621e-05 -6.75414833e-18)
(-4.35467025e-17 4.58908264e-05 -8.21070709e-18)
(-5.25636353e-17 5.53903757e-05 -9.89190377e-18)
(-6.28438092e-17 6.62211678e-05 -1.18001323e-17)
(-7.43498467e-17 7.83439046e-05 -1.39248428e-17)
(-8.69543985e-17 9.16244309e-05 -1.6238549e-17)
(-1.00420535e-16 0.00010581308 -1.86938391e-17)
(-1.14388379e-16 0.000120530603 -2.12218591e-17)
(-1.28373519e-16 0.000135266517 -2.37331875e-17)
(-1.41783717e-16 0.000149396723 -2.61220106e-17)
(-1.53959026e-16 0.000162225794 -2.82740565e-17)
(-1.6423528e-16 0.000173053867 -3.00777485e-17)
(-1.72022645e-16 0.000181259417 -3.14367983e-17)
(0 0 0)
(-4.94073888e-19 5.21716621e-07 -9.39269983e-20)
(-1.00643653e-18 1.06270703e-06 -1.91324387e-19)
(-1.57011832e-18 1.65779939e-06 -2.98463245e-19)
(-2.22655035e-18 2.35067248e-06 -4.23207238e-19)