/*--------------------------------*- C++ -*----------------------------------*\
| =========                 |                                                 |
| \\      /  F ield         | foam-extend: Open Source CFD                    |
|  \\    /   O peration     | Version:     4.1                                |
|   \\  /    A nd           | Web:         http://www.foam-extend.org         |
|    \\/     M anipulation  |                                                 |
\*---------------------------------------------------------------------------*/
FoamFile
{
    version     2.0;
    format      ascii;
    class       volScalarField;
    location    "0.6";
    object      rAU;
}
// * * * * * * * * * * * * * * * * * * * * * * * * * * * * * * * * * * * * * //

dimensions      [0 0 1 0 0 0 0];

internalField   nonuniform List<scalar> 
35840
(
0.000714285837
0.000836637776
0.000924548913
0.000999613464
0.00105386524
0.00109046481
0.0011150481
0.00113178936
0.00114332147
0.00115144389
0.00115736516
0.00116183898
0.00116532586
0.00116811331
0.00117038547
0.00117226386
0.00117383215
0.0011750864
0.00117614212
0.00117705105
0.00117783899
0.00117852809
0.0011791376
0.00117968441
0.0011801834
0.0011806476
0.00118108838
0.00118151548
0.000739083855
0.000819497705
0.000880892244
0.00095117304
0.00101612418
0.00106944622
0.00111046962
0.00114131935
0.0011644302
0.0011818609
0.00119522268
0.00120567646
0.00121401758
0.00122078848
0.00122636354
0.00123100518
0.0012349017
0.00123812092
0.00124084692
0.00124309607
0.00124497014
0.00124662464
0.00124810016
0.00124943243
0.00125065292
0.00125178929
0.00125286563
0.00125390264
0.00075317575
0.000833322968
0.000878398508
0.000929314384
0.000978234698
0.00102100087
0.00105596518
0.00108369734
0.00110556866
0.00112291208
0.00113682381
0.00114813649
0.00115745334
0.0011652091
0.00117172163
0.00117722693
0.00118190361
0.00118588987
0.00118929535
0.0011921301
0.00119432965
0.0011962361
0.00119795594
0.00119952613
0.0012009795
0.00120234503
0.00120364792
0.0012049097
0.000760309119
0.000850112971
0.000895623428
0.000941324756
0.000982256991
0.00101675994
0.00104457605
0.00106663136
0.00108422999
0.00109850018
0.00111028203
0.00112016483
0.00112855189
0.00113572427
0.00114188671
0.00114719508
0.00115177257
0.00115571957
0.00115911992
0.00116204511
0.00116416596
0.00116595549
0.00116759379
0.00116911285
0.00117054172
0.00117190629
0.00117322908
0.00117452906
0.000763382719
0.000860199481
0.00090977487
0.000956401165
0.000995497455
0.00102638353
0.00104993352
0.00106781738
0.00108169265
0.00109281803
0.00110203761
0.00110987931
0.00111666165
0.00112257938
0.0011277596
0.00113229335
0.00113625219
0.00113969647
0.00114267948
0.00114521518
0.00114683031
0.00114824478
0.00114956568
0.00115081818
0.00115202597
0.00115321049
0.00115439039
0.00115558102
0.000765074354
0.000866246913
0.000919348351
0.000968014895
0.00100750938
0.00103741231
0.00105911782
0.0010747863
0.0010863955
0.00109538444
0.00110268439
0.00110885105
0.00111419722
0.00111889508
0.00112304199
0.00112669804
0.0011299059
0.00113270059
0.00113511399
0.00113688788
0.0011378593
0.00113877647
0.00113965913
0.00114052762
0.00114140165
0.00114229934
0.00114323629
0.00114422482
0.000766121833
0.000870081791
0.00092579642
0.000976359057
0.00101677698
0.00104668767
0.00106773117
0.00108235883
0.00109276739
0.00110053028
0.00110665325
0.00111172854
0.001116083
0.00111989012
0.00112324116
0.00112618611
0.00112875587
0.00113097355
0.00113285972
0.00113361153
0.00113403854
0.00113445909
0.00113489159
0.0011353553
0.0011358691
0.00113645031
0.00113711358
0.00113786989
0.000766817198
0.000872665096
0.000930310194
0.000982462785
0.0010238528
0.0010540928
0.00107496048
0.0010891014
0.00109887109
0.00110594311
0.00111137828
0.00111579587
0.00111953418
0.00112276987
0.00112559288
0.00112804927
0.0011301646
0.00113195596
0.00113306291
0.00113305225
0.00113302563
0.00113302029
0.00113305727
0.00113315829
0.00113334455
0.00113363532
0.0011340467
0.00113459028
0.000767310831
0.00087450531
0.000933600196
0.000987055311
0.00102935091
0.00106003179
0.00108094824
0.00109487834
0.00110429776
0.00111096163
0.00111597759
0.00111998819
0.00112334133
0.00112621612
0.00112870121
0.00113083945
0.00113265211
0.0011340277
0.00113404348
0.00113365211
0.00113327049
0.00113292309
0.00113263598
0.00113243582
0.00113234852
0.00113239768
0.00113260289
0.00113297818
0.000767679099
0.00087587533
0.00093608232
0.000990601659
0.00103370986
0.00106486755
0.00108595406
0.00109983459
0.00110907415
0.0011154946
0.00112024534
0.00112399159
0.0011270918
0.00112972852
0.00113198999
0.00113391635
0.00113552488
0.00113587083
0.0011352182
0.00113454498
0.00113387961
0.00113325276
0.00113269694
0.00113224543
0.0011319308
0.00113178294
0.00113182689
0.00113208073
0.000767964281
0.000876932532
0.000938012596
0.000993406704
0.00103723212
0.00106886546
0.00109018913
0.00110412321
0.00111329733
0.00111958607
0.00112417482
0.00112775031
0.00113068234
0.0011331584
0.00113526759
0.00113704835
0.00113778759
0.00113711413
0.00113623687
0.00113532492
0.001134413
0.00113353868
0.00113274207
0.00113206475
0.0011315479
0.00113122987
0.0011311433
0.00113131212
0.000768191811
0.000877772711
0.000939553434
0.000995673553
0.00104012767
0.00107221656
0.0010938118
0.00110786657
0.00111705624
0.00112329598
0.00112780096
0.00113127715
0.00113410557
0.00113647936
0.0011384895
0.00113953755
0.00113904882
0.0011380596
0.00113697794
0.00113584207
0.00113469321
0.00113357658
0.00113254126
0.00113163902
0.0011309221
0.00113044009
0.00113023603
0.00113034218
0.000768377664
0.000878456398
0.000940810566
0.00099754009
0.00104254508
0.00107506094
0.00109694207
0.00111116054
0.00112042377
0.0011266777
0.00113116155
0.00113459781
0.0011373778
0.00113970037
0.00114110039
0.00114087202
0.00113987687
0.00113871649
0.00113743279
0.00113606917
0.00113467342
0.00113329918
0.00113200603
0.0011308583
0.00112992248
0.00112926319
0.0011289378
0.00112899045
0.000768532248
0.00087902321
0.000941854742
0.000999101744
0.00104459092
0.0010775026
0.00109967189
0.0011140808
0.00112345913
0.00112977613
0.0011342902
0.0011377377
0.00114051905
0.00114234508
0.00114246799
0.00114159419
0.00114046679
0.00113913355
0.00113763924
0.00113603156
0.00113436466
0.00113270119
0.00113111291
0.00112967962
0.00112848619
0.00112761742
0.00112715073
0.00112714739
0.000768662562
0.000879499866
0.000942734431
0.00100042561
0.0010463424
0.00107961919
0.00110207192
0.0011166871
0.00112621027
0.00113262843
0.00113721536
0.00114071902
0.00114310871
0.00114370726
0.00114310791
0.00114214813
0.00114088777
0.00113937445
0.00113765395
0.0011357768
0.00113380274
0.00113180369
0.00112986522
0.00112808601
0.00112657462
0.00112544315
0.00112479731
0.00112472356
0.000768773438
0.00087990483
0.000943483499
0.00100155948
0.00104785589
0.00108146877
0.00110419623
0.00111902616
0.00112871532
0.0011352645
0.00113996002
0.00114316622
0.00114442382
0.00114428522
0.00114365144
0.00114260864
0.0011412133
0.00113951026
0.0011375437
0.00113536468
0.00113303687
0.001130641
0.00112827778
0.0011260685
0.00112415222
0.00112267811
0.00112179221
0.0011216186
0.000768868279
0.000880251115
0.000944125992
0.00100253778
0.00104917264
0.00108309463
0.00110608583
0.00112113379
0.00113100361
0.00113770712
0.00114218642
0.00114439235
0.0011449527
0.00114483226
0.00114417176
0.00114305121
0.00114152067
0.00113961888
0.00113738486
0.00113486668
0.00113212892
0.00112925929
0.00112637405
0.00112362098
0.0011211779
0.00111924445
0.00111802477
0.00111768121
0.000768949526
0.00088054805
0.000944679201
0.00100338543
0.00105032286
0.00108452879
0.00110777119
0.00112303654
0.00113309645
0.00113965026
0.00114328543
0.00114487741
0.00114550477
0.0011454149
0.00114474052
0.0011435528
0.00114189219
0.00113978708
0.00113726637
0.00113436992
0.00113115812
0.00112772155
0.00112419054
0.00112074234
0.00111760324
0.00111504132
0.00111333023
0.001112727
0.000769018965
0.000880802427
0.00094515569
0.00100412058
0.00105132859
0.00108579455
0.00110927425
0.00112475297
0.00113471412
0.00114059142
0.00114372574
0.00114542526
0.00114613571
0.00114609585
0.00114542851
0.00114419329
0.00114241714
0.00114011321
0.00113729405
0.00113398356
0.0011302295
0.00112611759
0.00112178695
0.00111744475
0.00111337578
0.00110994008
0.0011074853
0.00110650726
0.000769077927
0.000881019276
0.000945564683
0.00100475647
0.00105220575
0.00108690848
0.0011106101
0.00112602528
0.00113547658
0.00114098215
0.00114425304
0.00114607822
0.00114689542
0.00114693407
0.00114630562
0.00114505551
0.0011431932
0.00114071072
0.00113759621
0.00113384713
0.00112948578
0.00112457922
0.00111926339
0.00111376987
0.00110844954
0.00110372278
0.00110023192
0.00109865154
0.000769127438
0.000881202413
0.000945913053
0.00100530277
0.00105296575
0.00108788198
0.00111153984
0.00112659948
0.00113581139
0.00114146954
0.00114489522
0.00114687097
0.001147827
0.0011479834
0.00114743937
0.00114622418
0.0011443261
0.00114170967
0.00113832857
0.00113413992
0.00112912242
0.00112330184
0.00111678729
0.00110981719
0.00110276911
0.00109624123
0.00109119117
0.00108862422
0.000769168326
0.000881354836
0.000946206047
0.00100576666
0.00105361669
0.00108849361
0.00111192842
0.00112687281
0.00113624051
0.00114206783
0.00114567154
0.00114782921
0.00114896481
0.00114928996
0.00114889191
0.00114778291
0.0011459271
0.00114325557
0.00113967714
0.00113509094
0.00112940611
0.00112257322
0.00111463341
0.00110579035
0.00109635216
0.0010872901
0.00107985438
0.00107563662
0.000769201322
0.000881478963
0.000946447825
0.00100610707
0.00105395455
0.00108871143
0.00111213743
0.00112722955
0.00113676683
0.0011427827
0.00114659146
0.00114896782
0.00115033169
0.00115088839
0.00115071511
0.00114980822
0.00114810711
0.00114550554
0.00114185779
0.00113698614
0.00113069779
0.00112281801
0.00111325158
0.00110195283
0.00108940715
0.00107666853
0.00106548715
0.00105841564
0.000769212319
0.000881541537
0.000946559146
0.00100623485
0.00105402816
0.00108885744
0.00111241408
0.00112766437
0.00113738556
0.00114361041
0.00114765316
0.00115028841
0.00115193524
0.00115279638
0.00115294315
0.00115236022
0.00115096567
0.00114861674
0.00114510807
0.00114016919
0.0011334702
0.00112464622
0.00111327543
0.00109907253
0.00108243706
0.00106434157
0.00104701945
0.00103463212
0.000769203511
0.000881537209
0.000946556612
0.00100625082
0.00105411794
0.00108905395
0.00111274823
0.00112816581
0.00113808402
0.00114453718
0.00114884215
0.00115177679
0.0011537636
0.00115500816
0.00115558276
0.00115546872
0.00115457234
0.00115272359
0.0011496631
0.0011450225
0.0011383054
0.00112888434
0.00111568
0.00109831422
0.00107646932
0.00105070585
0.00102324004
0.00100076243
0.000769195524
0.000881521212
0.000946556858
0.00100629715
0.00105424267
0.0010892892
0.00111312545
0.00112871652
0.0011388416
0.00114553872
0.00115013018
0.00115340078
0.00115578147
0.00115748759
0.00115860191
0.00115911546
0.00115894015
0.00115790079
0.00115570921
0.00115192096
0.00114587526
0.00113636067
0.00112205816
0.00110154039
0.00107319998
0.00103631272
0.00099261779
0.000954653742
0.000769191894
0.000881518271
0.000946576009
0.00100636589
0.00105439127
0.00108954872
0.00111352738
0.00112929371
0.00113963022
0.00114658061
0.00115147518
0.0011551093
0.0011579275
0.00116016252
0.00116191891
0.00116321434
0.00116399174
0.00116410833
0.00116330152
0.00116112528
0.00115680112
0.00114857107
0.00113488663
0.00111277043
0.00107807245
0.00102632443
0.000957609371
0.00090317527
0.000769191722
0.000881525231
0.000946608276
0.00100644806
0.00105455112
0.00108981575
0.00111393248
0.00112987008
0.00114041553
0.00114761963
0.00115282266
0.00115683343
0.00116011452
0.00116292289
0.00116539586
0.00116759547
0.00116952472
0.00117112152
0.00117222947
0.00117253641
0.00117113295
0.00116663465
0.00115717503
0.00113892396
0.00110531624
0.00104668568
0.000957221387
0.000879857853
0.000739802722
0.000821721009
0.000884287067
0.000955197022
0.00102016334
0.00107304271
0.00111337713
0.0011434767
0.00116589374
0.00118273789
0.00119563023
0.00120572279
0.00121379547
0.00122037456
0.00122581996
0.00123038203
0.00123423938
0.00123752384
0.00124033621
0.00124275619
0.00124484884
0.00124666874
0.0012482627
0.00124967149
0.00125093103
0.00125207321
0.00125312631
0.00125411532
0.000752948502
0.000758100966
0.000763153902
0.000796315537
0.000843043388
0.000894038251
0.000942835584
0.000986197804
0.00102313185
0.0010538263
0.00107906295
0.00109980927
0.00111696311
0.0011312632
0.00114328799
0.00115348092
0.00116218006
0.00116964523
0.00117607965
0.00118164593
0.00118647737
0.00119068584
0.0011943673
0.00119760566
0.00120047537
0.00120304323
0.00120536944
0.00120750836
0.000770706021
0.000770885534
0.000754230772
0.000761611965
0.000782823897
0.000811820815
0.000843666099
0.00087507394
0.000904268779
0.000930427688
0.000953339047
0.000973166695
0.000990245064
0.00100494802
0.00101762788
0.00102859263
0.00103810116
0.00104636752
0.00105356848
0.00105985123
0.00106534006
0.00107014175
0.00107434957
0.00107804648
0.00108130732
0.00108420045
0.0010867888
0.00108913047
0.000779770971
0.000790744991
0.000774251385
0.000776095405
0.000787816954
0.000805266411
0.000825333498
0.000845959813
0.000865985451
0.000884761597
0.000901959179
0.000917478833
0.000931361276
0.000943715283
0.000954676129
0.000964383818
0.00097297171
0.00098056156
0.000987262464
0.000993171708
0.000998376328
0.00100295486
0.00100697895
0.00101051482
0.00101362437
0.00101636609
0.00101879559
0.00102096588
0.000783420566
0.000802129356
0.000790103447
0.00079402983
0.000805254796
0.000819678078
0.000834856753
0.000849620654
0.000863569082
0.00087657827
0.000888611709
0.000899678396
0.00090981087
0.000919050265
0.000927441433
0.000935031931
0.000941870942
0.000948008106
0.000953492725
0.000958373325
0.00096269748
0.000966511831
0.00096986224
0.000972794064
0.000975352412
0.000977582325
0.000979528833
0.000981236831
0.000785373706
0.000808599935
0.000800135558
0.000806890738
0.000819981959
0.000834971287
0.000849340802
0.000862153724
0.000873379945
0.000883268041
0.000892083839
0.000900042087
0.000907292787
0.000913929629
0.00092000801
0.000925561583
0.000930613333
0.000935182061
0.000939285941
0.000942944344
0.000946178641
0.000949012531
0.000951472177
0.000953586284
0.000955386113
0.000956905418
0.000958180261
0.000959248656
0.000786565102
0.000812609555
0.000806646688
0.000815654313
0.000830620015
0.000846905983
0.000861840903
0.000874485479
0.000884922781
0.00089356565
0.000900849329
0.000907133452
0.000912676043
0.000917643067
0.000922133193
0.000926201985
0.000929879763
0.000933183411
0.000936123764
0.000938710007
0.00094095221
0.000942862734
0.000944457093
0.000945754463
0.000946777969
0.000947554769
0.00094811592
0.000948495989
0.000787348393
0.000815280948
0.000811113453
0.000821857719
0.000838378674
0.000855904759
0.000871656596
0.000884670463
0.000895074495
0.000903358618
0.00091004338
0.000915567613
0.000920254553
0.000924319468
0.000927895854
0.000931062157
0.000933862333
0.000936320106
0.000938448377
0.000940255195
0.000941747528
0.000942933614
0.000943824548
0.000944435364
0.000944785757
0.000944900494
0.000944809481
0.000944547437
0.000787902932
0.000817172845
0.000814329767
0.000826429434
0.000844228124
0.000862840143
0.000879396975
0.000892907985
0.000903527908
0.000911797635
0.000918293357
0.000923504265
0.000927794346
0.000931409489
0.000934505017
0.000937174128
0.000939470036
0.000941421572
0.000943043677
0.000944344325
0.000945328981
0.000946003646
0.000946377
0.000946461999
0.000946250059
0.000945611909
0.000944967995
0.000944350814
0.000788316441
0.000818577668
0.000816739161
0.000829911828
0.000848768416
0.000868325568
0.000885633852
0.000899669154
0.000910597917
0.000918996766
0.000925484168
0.000930588225
0.000934704122
0.000938100586
0.000940948518
0.000943350961
0.000945366618
0.000947026556
0.000948345645
0.000949330162
0.000949982878
0.000950306676
0.000949659743
0.000948737749
0.000947714605
0.00094647234
0.000945438833
0.000944646906
0.000788636919
0.000819661277
0.000818605899
0.000832641274
0.000852380605
0.000872760757
0.000890760304
0.000905317815
0.000916599351
0.000925203968
0.000931781418
0.000936890713
0.000940952854
0.000944255878
0.000946983879
0.000949247966
0.00095111081
0.000952604329
0.000953741904
0.00095452661
0.000954221893
0.000953260966
0.000951491235
0.000949637681
0.000947921684
0.000946394838
0.00094510529
0.000944095141
0.000788893104
0.000820523288
0.000820093708
0.00083483386
0.000855316097
0.000876414243
0.000895044919
0.00091010929
0.000921765257
0.000930623965
0.000937357002
0.000942547101
0.00094663627
0.000949928956
0.000952620804
0.000954830026
0.000956622613
0.00095803068
0.000958822034
0.000958084365
0.000956357052
0.000954113868
0.000951886282
0.000949738326
0.00094773508
0.000945941025
0.000944417279
0.000943218018
0.000789102892
0.000821225893
0.000821307191
0.000836632113
0.000857745614
0.000879472575
0.000898677551
0.000914226581
0.000926265258
0.000935409726
0.000942346107
0.000947674792
0.000951854429
0.000955203035
0.000957926073
0.000960147842
0.000961936983
0.000962413318
0.000961587931
0.000959287224
0.000956838314
0.000954311572
0.000951779763
0.000949319269
0.000947009625
0.000944931378
0.000943162379
0.000941772803
0.000789277847
0.000821809409
0.000822315286
0.000838132361
0.000859787605
0.000882068227
0.000901795628
0.000917804134
0.000930225423
0.000939676195
0.000946851835
0.000952365727
0.000956689548
0.000960152316
0.000962967672
0.00096526495
0.000965618465
0.000964415438
0.000962157163
0.000959628097
0.000956904417
0.000954064153
0.000951190749
0.00094837463
0.000945712749
0.000943305928
0.000941253934
0.000939648546
0.00078942571
0.000822300825
0.000823164654
0.00083940108
0.00086152564
0.00088429664
0.000904499972
0.000920942134
0.000933740858
0.000943510794
0.000950953135
0.000956690933
0.000961206037
0.000964836527
0.000967562926
0.000968280076
0.000966941261
0.000964903614
0.000962454119
0.000959673678
0.000956641909
0.000953443586
0.000950173069
0.000946936599
0.000943852139
0.000941046277
0.000938647843
0.000936778256
0.000789551796
0.000822718676
0.000823887603
0.000840484979
0.000863019465
0.000886227208
0.000906865071
0.000923715617
0.00093688346
0.000946979999
0.000954710207
0.000960704427
0.000965452891
0.000968717524
0.000969962258
0.000969030311
0.000967422237
0.000965245991
0.000962588701
0.000959529217
0.000956147997
0.000952534773
0.000948794409
0.000945050545
0.000941446312
0.000938141156
0.000935302829
0.000933094091
0.000789659836
0.000823075978
0.000824506933
0.000841417345
0.000864312186
0.000887910667
0.000908946022
0.000926180526
0.00093970704
0.000950133554
0.000958167636
0.000964445655
0.000968638805
0.000970563254
0.000970496586
0.000969555035
0.00096787466
0.000965554773
0.000962674779
0.000959307375
0.00095553
0.000951434129
0.000947133438
0.000942769819
0.000938516055
0.000934573404
0.000931162194
0.00092849082
0.000789752501
0.000823382044
0.000825038989
0.000842222166
0.000865435106
0.000889384123
0.000910783311
0.000928377985
0.000942250964
0.000953007159
0.000961356419
0.00096697262
0.000970000157
0.000971100237
0.000971088702
0.000970149223
0.00096840573
0.00096594506
0.000962833668
0.000959132584
0.00095491062
0.000950255477
0.000945285639
0.000940160354
0.000935086163
0.000930317039
0.000926134419
0.000922835763
0.000789831739
0.000823643665
0.000825495662
0.000842916893
0.000866411012
0.000890674581
0.00091240627
0.000930337459
0.000944542635
0.00095562445
0.00096327628
0.000967920192
0.000970542563
0.000971757579
0.000971823067
0.000970908831
0.000969123722
0.000966537629
0.000963198148
0.000959147298
0.000954436395
0.000949140566
0.000943375153
0.000937312237
0.000931194258
0.000925340138
0.000920094651
0.000915947755
0.000789899005
0.000823865899
0.000825885737
0.000843514335
0.000867256513
0.000891801515
0.000913835687
0.000932079041
0.00094643477
0.000957002189
0.000963878942
0.000968455659
0.000971241537
0.000972600696
0.000972777816
0.000971927158
0.000970139418
0.000967462208
0.000963917527
0.000959519232
0.000954288648
0.000948274062
0.00094157321
0.000934359611
0.00092690835
0.000919573131
0.000912909975
0.000907560995
0.000789955425
0.000824052626
0.000826215857
0.000844024028
0.000867983753
0.000892778834
0.000915085714
0.000933343876
0.000947345152
0.00095732461
0.000964386198
0.000969159358
0.000972141353
0.000973685684
0.000974023811
0.000973293631
0.000971564808
0.000968857988
0.000965161526
0.000960448898
0.000954695958
0.000947903238
0.000940124998
0.000931512384
0.000922331858
0.000913037828
0.000904398224
0.000897304214
0.000790001903
0.000824206947
0.000826491224
0.00084445326
0.000868601748
0.000893597089
0.000915839538
0.000933869496
0.000947612066
0.000957780299
0.000965053453
0.000970054869
0.000973274612
0.000975057128
0.000975621882
0.000975090544
0.000973510182
0.000970870928
0.000967120088
0.000962176314
0.000955949194
0.00094836182
0.000939386213
0.000929104821
0.000917684234
0.000905787717
0.000894350511
0.00088464808
0.000790028543
0.000824331511
0.000826716149
0.000844791763
0.000868991906
0.000893963608
0.000916066889
0.000934077783
0.000947996735
0.00095837429
0.000965886567
0.000971153312
0.000974660046
0.000976744918
0.00097761811
0.000977387259
0.000976078076
0.000973648752
0.000970000006
0.000964983498
0.000958417797
0.000950107231
0.000939883357
0.000927588866
0.000913425569
0.000898007222
0.000882508948
0.000868702828
0.000790022469
0.000824374235
0.000826803088
0.000844905862
0.000869092911
0.000893998477
0.000916215934
0.000934380137
0.00094849127
0.000959099237
0.000966879574
0.000972451447
0.000976299391
0.000978759421
0.000980037211
0.000980231549
0.000979351902
0.000977328274
0.000974014639
0.000969188782
0.000962555355
0.000953753852
0.000942331029
0.000927876561
0.000910187843
0.000889797736
0.000868147855
0.000847586429
0.000790002226
0.000824341625
0.000826769
0.000844867639
0.00086910401
0.00089409423
0.000916434948
0.000934763076
0.000949080223
0.000959937838
0.000968013632
0.000973929669
0.000978173912
0.00098108587
0.000982873846
0.000983636684
0.000983378306
0.000982012375
0.0009793571
0.000975121329
0.000968885299
0.000960081426
0.000947737544
0.000930837945
0.000908940402
0.000882009974
0.000850495878
0.000816977848
0.000789988541
0.00082431018
0.000826740692
0.000844865791
0.000869158077
0.000894238796
0.000916708649
0.000935207741
0.000949740705
0.000960862687
0.000969256384
0.000975550468
0.000980241325
0.000983678759
0.00098608305
0.000987565951
0.000988143321
0.000987735622
0.000986154188
0.00098307068
0.000977966483
0.000969865121
0.000957116455
0.000938246067
0.000911709797
0.000875785153
0.000829031954
0.000776957575
0.000789980583
0.000824294984
0.000826735736
0.000844892591
0.000869244347
0.000894417783
0.000917018345
0.000935690349
0.000950442888
0.000961836748
0.000970562193
0.000977258044
0.000982434106
0.000986457695
0.000989571678
0.000991916513
0.000993543718
0.000994416207
0.000994391636
0.000993182143
0.000990245251
0.000984066178
0.000972505789
0.000953690262
0.00092365489
0.000877090557
0.000809624746
0.000744577105
0.000789977378
0.000824292752
0.000826748475
0.000844939505
0.000869350775
0.00089461486
0.000917342493
0.000936183012
0.00095115111
0.000962814716
0.000971873677
0.000978979795
0.000984660454
0.000989306823
0.000993194256
0.000996507736
0.000999360195
0.00100179969
0.00100380219
0.00100524389
0.00100559643
0.0010030276
0.00099619169
0.000982460586
0.000956445361
0.000909029835
0.000830939748
0.00076410185
0.000754520308
0.000837737227
0.000885277631
0.000937747306
0.000987162789
0.00102956061
0.00106360661
0.00109018041
0.00111087419
0.00112713801
0.00114011544
0.00115064982
0.00115933741
0.00116659854
0.00117273463
0.00117796588
0.00118245666
0.00118633297
0.00118969417
0.00119262075
0.00119517961
0.00119742765
0.0011994142
0.00120118265
0.00120277162
0.00120421565
0.00120554573
0.0012067895
0.00077150155
0.000773526018
0.000758521379
0.000767402363
0.000789782341
0.000819506833
0.00085160651
0.000882855158
0.000911599433
0.000937146421
0.000959390209
0.000978567474
0.000995055317
0.00100924762
0.00102150235
0.00103212514
0.00104136884
0.00104944021
0.00105650875
0.00106271502
0.00106817752
0.00107299795
0.00107726514
0.001081058
0.00108444754
0.00108749829
0.00109026923
0.00109281436
0.000791454008
0.00078712103
0.000747909541
0.00073079313
0.000728396398
0.00073633084
0.00075060211
0.000768066763
0.00078666949
0.000805117075
0.000822623985
0.000838783337
0.000853447789
0.000866622217
0.000878390876
0.000888873446
0.00089819909
0.0009064926
0.000913868501
0.000920429597
0.000926267623
0.00093146471
0.000936095045
0.000940226378
0.000943921279
0.000947238077
0.000950231509
0.000952953088
0.000801364792
0.000808450504
0.000768051631
0.000744583444
0.000732836114
0.000729877369
0.000733015123
0.000739980154
0.000749199611
0.000759603318
0.000770436788
0.000781189478
0.000791542451
0.000801311892
0.00081040432
0.000818785629
0.000826459023
0.000833449471
0.000839793614
0.000845533681
0.000850714037
0.000855379356
0.000859573798
0.000863340742
0.000866722797
0.000869761889
0.000872499324
0.000874975769
0.000805282792
0.000820724769
0.000784168029
0.000761967857
0.000749421727
0.000743740357
0.000742671337
0.000744522433
0.000748237087
0.000753150708
0.000758793161
0.000764819552
0.000770981017
0.000777099144
0.000783047333
0.000788738889
0.000794117849
0.00079915117
0.000803822484
0.000808127457
0.000812070413
0.000815661965
0.000818917402
0.000821855644
0.000824498568
0.000826870538
0.000828998045
0.000830909342
0.000807384036
0.000827654968
0.000794253918
0.000774205366
0.000763072466
0.000757941225
0.000756456753
0.000756995493
0.000758677079
0.000761057315
0.000763887318
0.000767010287
0.000770316592
0.00077371931
0.000777144081
0.000780527218
0.000783815848
0.000786967678
0.000789950279
0.000792740126
0.000795321555
0.000797685736
0.0007998298
0.000801756149
0.000803471909
0.000804988479
0.000806321122
0.000807488526
0.000808668549
0.000831929964
0.000800750972
0.000782420879
0.000772687801
0.000768641494
0.000767829023
0.000768565886
0.000769972637
0.000771653398
0.000773440483
0.000775272518
0.000777131853
0.000779009822
0.000780892931
0.000782761136
0.000784590196
0.000786354511
0.000788029483
0.000789593199
0.000791027485
0.000792318468
0.000793456874
0.000794438156
0.000795262539
0.000795934964
0.000796464949
0.000796866301
0.000809514671
0.000834777027
0.000805196025
0.000788191016
0.000779589172
0.000776509898
0.000776462008
0.000777722788
0.00077939957
0.000781102446
0.000782685021
0.000784119101
0.000785425986
0.000786636082
0.00078777149
0.000788842326
0.00078984832
0.000790781804
0.000791630748
0.000792381359
0.000793020082
0.000793535071
0.000793917282
0.000794161296
0.000794265921
0.000794234606
0.000794075646
0.000793802131
0.00081011546
0.00083679446
0.000808391443
0.000792423805
0.000784743757
0.000782481524
0.000783122188
0.000784918872
0.000786972569
0.00078889954
0.000790566151
0.000791961082
0.00079312433
0.000794104784
0.000794941641
0.000795660103
0.000796272627
0.000796781774
0.000797183322
0.00079746909
0.000797629261
0.000797654242
0.000797536181
0.000797270217
0.000796855505
0.000796296017
0.000795601048
0.000794785384
0.000810564151
0.000838292723
0.000810782101
0.000795637968
0.000788720359
0.000787157152
0.000788410743
0.000790711652
0.000793153102
0.000795356049
0.000797198077
0.000798681879
0.000799861725
0.000800799366
0.000801544766
0.000802131741
0.00080257934
0.000802894897
0.000803077367
0.000803120388
0.000803014865
0.00080275113
0.000802320801
0.000801718399
0.000800942769
0.000799998244
0.00079889549
0.000797651907
0.000810911983
0.000839448195
0.000812632595
0.000798151706
0.000791870386
0.000790909884
0.000792711052
0.000795482237
0.000798305807
0.000800803176
0.000802859486
0.000804488535
0.000805756552
0.000806736232
0.000807486527
0.000808048011
0.000808444336
0.000808685492
0.000808771408
0.000808695291
0.000808446539
0.000808013254
0.0008073845
0.000806552372
0.000805513938
0.000803877475
0.000802206385
0.000800564195
0.000811189919
0.000840366976
0.000814106425
0.000800167969
0.000794422241
0.000793983979
0.000796274946
0.00079948286
0.000802677657
0.000805477689
0.000807771794
0.000809581427
0.000810982056
0.00081205537
0.000812867973
0.000813466229
0.000813877573
0.000814113799
0.000814174794
0.000814052108
0.000813732163
0.000813199113
0.000811538062
0.000809741484
0.000807876228
0.000805572826
0.000803417172
0.000801485934
0.000811417347
0.000841115364
0.000815307772
0.00080181979
0.000796529211
0.000796545966
0.00079927579
0.000802888031
0.000806440023
0.000809545045
0.00081209279
0.000814109442
0.000815677158
0.000816884609
0.000817804591
0.000818488217
0.000818965901
0.000819250491
0.000819340985
0.000819151925
0.000817591803
0.00081587042
0.00081310377
0.000810326118
0.000807635606
0.00080508801
0.000802738495
0.00080063899
0.000811606858
0.000841736402
0.00081630514
0.000803196527
0.000798296518
0.00079871224
0.000801836459
0.000805822609
0.000809716223
0.000813124692
0.000815936737
0.000818181244
0.000819945092
0.000821322239
0.000822390386
0.00082320438
0.000823796789
0.000824180695
0.000823207919
0.000821699592
0.000818827904
0.000815850689
0.000812824999
0.00080981185
0.000806876492
0.000804087359
0.000801513698
0.000799221916
0.000811766923
0.000842258947
0.000817144791
0.000804359506
0.00079979774
0.000800565567
0.000804045525
0.000808377657
0.000812596989
0.000816304886
0.000819388265
0.000821877518
0.000823862789
0.000825442248
0.00082669761
0.00082768664
0.00082785002
0.000826930095
0.000824576939
0.000821731994
0.000818682661
0.000815486635
0.000812206869
0.000808913389
0.00080568378
0.000802602006
0.000799755343
0.000797229371
0.000811903376
0.000842702836
0.000817858702
0.000805351636
0.000801085102
0.000802165488
0.000805967516
0.000810620248
0.000815149601
0.000819151363
0.000822510562
0.000825258328
0.000827487469
0.000829299914
0.000830780791
0.000830746943
0.000829625884
0.000827304026
0.000824616795
0.000821618238
0.000818362933
0.000814910356