/*--------------------------------*- C++ -*----------------------------------*\
| =========                 |                                                 |
| \\      /  F ield         | foam-extend: Open Source CFD                    |
|  \\    /   O peration     | Version:     4.1                                |
|   \\  /    A nd           | Web:         http://www.foam-extend.org         |
|    \\/     M anipulation  |                                                 |
\*---------------------------------------------------------------------------*/
FoamFile
{
    version     2.0;
    format      ascii;
    class       volVectorField;
    location    "0.6";
    object      U;
}
// * * * * * * * * * * * * * * * * * * * * * * * * * * * * * * * * * * * * * //

dimensions      [0 1 -1 0 0 0 0];

internalField   nonuniform List<vector> 
35840
(
(3.94086015 0.268528703 0.261844445)
(3.20795291 0.371832094 0.357379789)
(2.43829464 0.266507771 0.249860531)
(1.72034488 0.156946185 0.141978244)
(1.29366424 0.0888185403 0.0772227958)
(1.05217542 0.0517269095 0.0439386522)
(0.89341438 0.0312076582 0.0270964934)
(0.78519917 0.0189965624 0.0180810087)
(0.711669833 0.0115254047 0.0131436422)
(0.660011838 0.00695055479 0.0104210308)
(0.622019272 0.00409637313 0.00881271594)
(0.593026595 0.00226443071 0.0077340134)
(0.570249442 0.00106445715 0.00691360826)
(0.55193133 0.000268834857 0.0062296626)
(0.536938418 -0.000261762402 0.00562747792)
(0.524514722 -0.000613631682 0.00508348211)
(0.514130543 -0.000840726562 0.00458760629)
(0.505392832 -0.000978209661 0.00413442214)
(0.498003042 -0.00104945469 0.00372011488)
(0.491720756 -0.0010695237 0.0033414931)
(0.486346534 -0.00104861779 0.00299552991)
(0.481711252 -0.000994263607 0.00267948668)
(0.477668731 -0.000912401367 0.00239107336)
(0.474091144 -0.000807979891 0.00212844714)
(0.470865924 -0.000685422774 0.0018901873)
(0.467893858 -0.000548950628 0.00167524974)
(0.465087985 -0.000402750452 0.00148289814)
(0.462373088 -0.000251011504 0.00131261949)
(4.52124929 0.409953916 0.331399888)
(4.20224507 0.638138686 0.509000129)
(3.63676077 0.543499313 0.407274505)
(2.9428894 0.3912951 0.261504959)
(2.41564285 0.267509851 0.152217973)
(2.06111588 0.181554194 0.0859694824)
(1.80858126 0.124049807 0.0502541336)
(1.6243112 0.0850880319 0.0317449415)
(1.4902361 0.058488133 0.0220731427)
(1.39079372 0.0403539319 0.0169162036)
(1.31474546 0.0279105161 0.0139985639)
(1.25506528 0.0192469844 0.0121410468)
(1.20725475 0.0131164036 0.0107950254)
(1.16828377 0.00870844333 0.00972064399)
(1.13607439 0.00549254795 0.00880917007)
(1.10917376 0.0031216176 0.00800847728)
(1.0865309 0.00136782941 0.00729189688)
(1.06735913 7.91375114e-05 0.00664390917)
(1.05104239 -0.000847757399 0.00605358029)
(1.03708681 -0.00148420203 0.00551198975)
(1.02508748 -0.00188112443 0.00501166991)
(1.01470428 -0.0020762721 0.0045467005)
(1.00564388 -0.00209905856 0.00411263675)
(0.997650307 -0.00197392208 0.00370623744)
(0.990498219 -0.00172249784 0.00332529249)
(0.983988395 -0.00136507234 0.00296849551)
(0.97794503 -0.000921481379 0.00263530772)
(0.972214272 -0.000411542924 0.00232579218)
(4.44213346 0.221362466 0.337951897)
(4.08278405 0.436518909 0.518819069)
(3.65713696 0.4631208 0.41808928)
(3.13712246 0.408861579 0.275888983)
(2.71978251 0.331898813 0.166457783)
(2.4218187 0.257612328 0.0961045921)
(2.19809763 0.195687191 0.0564747106)
(2.0263489 0.147069687 0.035893446)
(1.89484445 0.109820244 0.0253544892)
(1.79242654 0.0816825856 0.0198165188)
(1.71054342 0.0605826374 0.0166847707)
(1.6437691 0.0447686969 0.0146449627)
(1.58855749 0.0328637664 0.0130991208)
(1.5424034 0.0238317354 0.0118084607)
(1.50348708 0.0169163267 0.0106808856)
(1.47046133 0.0115793975 0.00967814399)
(1.44229768 0.00744407004 0.00878129492)
(1.41818671 0.00424782132 0.0079772301)
(1.39747451 0.00180694879 0.00725385034)
(1.37962222 -9.28433624e-06 0.00659933744)
(1.36417334 -0.00129598025 0.00600262793)
(1.35073678 -0.00212474035 0.00545396806)
(1.33897217 -0.00255199879 0.00494531649)
(1.32857875 -0.00262513202 0.00447042503)
(1.31928871 -0.00238674311 0.00402470718)
(1.31086264 -0.00187752308 0.00360506493)
(1.30308687 -0.00113806154 0.0032096871)
(1.29577198 -0.000209827305 0.00283781182)
(4.4137073 0.123370974 0.337929106)
(3.97527229 0.285998441 0.516843216)
(3.52614386 0.3469471 0.410944801)
(3.0482677 0.341770948 0.26705595)
(2.69650573 0.304740684 0.15868817)
(2.46049647 0.256439239 0.0893119065)
(2.28810462 0.208559872 0.0503490433)
(2.15601099 0.16628536 0.0306485069)
(2.05356425 0.130894913 0.0211766366)
(1.97169542 0.10206741 0.0166828442)
(1.90391628 0.0789539427 0.0144652823)
(1.84653035 0.0605779137 0.0131665676)
(1.79737525 0.04601183 0.0121773129)
(1.7549953 0.0344552089 0.0112777531)
(1.71832697 0.0252587568 0.010411214)
(1.68654889 0.0179194268 0.00957551225)
(1.65898927 0.0120600251 0.00878166379)
(1.63507635 0.00740360356 0.00803917719)
(1.61431336 0.00374881134 0.00735190262)
(1.59626362 0.000949137758 0.00671856603)
(1.58053896 -0.00110363404 0.00613461449)
(1.56679164 -0.00249227891 0.00559426663)
(1.55470764 -0.00328320315 0.00509154798)
(1.54400156 -0.00353348665 0.00462101239)
(1.53441305 -0.00329628583 0.00417818374)
(1.52570459 -0.00262458629 0.00375972663)
(1.51766051 -0.00157360714 0.00336344609)
(1.51008676 -0.000202085257 0.00298818101)
(4.40562834 0.0838884311 0.338530119)
(3.92709469 0.205875871 0.518667011)
(3.43458553 0.264643103 0.409525383)
(2.94274314 0.274651744 0.261033429)
(2.60543682 0.257685776 0.150310969)
(2.3968872 0.227991348 0.0805997009)
(2.25547089 0.194243831 0.042147196)
(2.15330167 0.161523632 0.0232698524)
(2.07740453 0.13211207 0.0147410911)
(2.017932 0.106659843 0.0111880832)
(1.96847919 0.085095906 0.00984643295)
(1.92579438 0.0670594393 0.00933177787)
(1.88829273 0.0520879073 0.00901884996)
(1.85510811 0.0397119128 0.00868351234)
(1.82570823 0.0295050642 0.00827674886)
(1.79971531 0.0211061698 0.00781059131)
(1.77681044 0.0142238589 0.00731197489)
(1.75669369 0.00863119841 0.0068055891)
(1.73907354 0.00415561299 0.00630858112)
(1.72366597 0.000667579374 0.00583053539)
(1.71019597 -0.0019308978 0.00537540413)
(1.6983997 -0.00371606483 0.00494399082)
(1.68802393 -0.00475042767 0.00453511937)
(1.67882733 -0.00508981719 0.00414670582)
(1.67058114 -0.00478901207 0.00377656474)
(1.66307017 -0.00390589208 0.00342286401)
(1.65609428 -0.00250423285 0.00308434445)
(1.64947023 -0.000655185421 0.00276039359)
(4.40178204 0.0613580627 0.339164393)
(3.90242003 0.153225031 0.520512806)
(3.38074984 0.204413335 0.410097743)
(2.86922793 0.221087637 0.258746919)
(2.52752423 0.215761306 0.145978504)
(2.32479473 0.198105238 0.0755285876)
(2.19491696 0.174670748 0.0370211284)
(2.10726169 0.149840347 0.0183391662)
(2.04675095 0.126051986 0.0101161082)
(2.00218236 0.10437328 0.00691298149)
(1.9664659 0.0851488539 0.00592969677)
(1.9360597 0.0683816972 0.00577172099)
(1.90931558 0.0539151038 0.00580769865)
(1.88544264 0.0415268006 0.00580463562)
(1.8640585 0.0309817619 0.00570599565)
(1.84496333 0.022060815 0.00551983365)
(1.82801531 0.0145742205 0.00527213303)
(1.81307539 0.00836602608 0.00498874468)
(1.79999036 0.00331286518 0.00468931212)
(1.78858986 -0.000680503084 0.00438644008)
(1.77869231 -0.00368779115 0.00408749493)
(1.77010497 -0.00576735084 0.00379636754)
(1.76263015 -0.00696884264 0.00351446869)
(1.7560682 -0.00733966917 0.00324184721)
(1.75022079 -0.0069303998 0.00297798631)
(1.74489449 -0.00579911094 0.00272227196)
(1.73990446 -0.00401447862 0.00247426577)
(1.73507834 -0.00165741638 0.00223385111)
(4.39956875 0.0466857781 0.339653112)
(3.88830775 0.117717546 0.521952656)
(3.34832812 0.161233738 0.411267946)
(2.8210524 0.180137406 0.258564562)
(2.47124314 0.181412536 0.144562026)
(2.26671017 0.171534967 0.0734994756)
(2.13927861 0.155447493 0.034786252)
(2.05696396 0.136718677 0.0160483972)
(2.00348239 0.117591207 0.00782462159)
(1.96669937 0.0992725241 0.00464257762)
(1.9389412 0.0823373324 0.00368819672)
(1.91631166 0.06701335 0.00357066745)
(1.89694742 0.0533428949 0.00366567899)
(1.87994265 0.041274047 0.00374107057)
(1.86487323 0.0307133018 0.00373649741)
(1.85154608 0.0215556837 0.00365503508)
(1.83985468 0.013701395 0.00351804438)
(1.82970938 0.00706419171 0.00334761631)
(1.82101043 0.00157448132 0.0031606622)
(1.81363903 -0.00282173668 0.00296811653)
(1.80745875 -0.00616581768 0.00277660912)
(1.8023146 -0.00849041162 0.00258960031)
(1.79803822 -0.00982544644 0.00240837602)
(1.79445117 -0.0102038428 0.00223304162)
(1.79136911 -0.00966686443 0.00206316698)
(1.78860649 -0.00826878151 0.00189816299)
(1.7859818 -0.00608036242 0.00173750625)
(1.78332337 -0.00319073961 0.00158086526)
(4.39821806 0.0366428379 0.340042544)
(3.8796219 0.0929667136 0.523108402)
(3.32763888 0.129540284 0.412494265)
(2.78863927 0.148153975 0.259131641)
(2.43117968 0.152908694 0.14440689)
(2.22294836 0.148081763 0.0729493741)
(2.09470345 0.137280715 0.0341017984)
(2.01369676 0.123281726 0.0153177878)
(1.96295164 0.107992842 0.00705782693)
(1.92976279 0.0925946305 0.00382892365)
(1.90607635 0.0777656225 0.00281322609)
(1.88775031 0.0638700708 0.0026280003)
(1.87275378 0.0510850301 0.00266114009)
(1.86006742 0.0394808797 0.00268864012)
(1.8491954 0.0290705108 0.00265313582)
(1.83990468 0.0198391199 0.00255756811)
(1.83207155 0.0117622254 0.00242164068)
(1.82560446 0.00481613264 0.00226514171)
(1.8204102 -0.00101689072 0.00210254761)
(1.81638278 -0.00574764342 0.00194289171)
(1.81339556 -0.00938066891 0.00179123227)
(1.81130304 -0.0119178428 0.00164960183)
(1.80994195 -0.0133636723 0.00151821035)
(1.80913407 -0.013730949 0.00139633732)
(1.80869026 -0.0130465975 0.00128284514)
(1.80841585 -0.0113570759 0.00117649299)
(1.80811712 -0.00873260135 0.00107609562)
(1.80760896 -0.00526948679 0.000980589488)
(4.39732454 0.029365133 0.340349069)
(3.87390208 0.0747780061 0.524004097)
(3.31376198 0.105381555 0.413534372)
(2.76614735 0.122579281 0.259831246)
(2.40227162 0.128946188 0.144686976)
(2.19013704 0.127294713 0.0729958062)
(2.05998803 0.120199997 0.0340820003)
(1.97863169 0.109770593 0.0152878326)
(1.92865609 0.0975621487 0.00701497449)
(1.89697669 0.0846376079 0.0037548625)
(1.87527501 0.0716863295 0.00268705717)
(1.85923563 0.0591372115 0.00243409049)
(1.84671024 0.0472493727 0.00239346755)
(1.8365985 0.0361768802 0.00234953898)
(1.82834966 0.0260110271 0.00224998037)
(1.82169514 0.0168075598 0.00210016058)
(1.81648999 0.00860444284 0.00192058846)
(1.81263127 0.00143310164 0.00173085485)
(1.81002104 -0.00467561876 0.00154481175)
(1.80855029 -0.00968874427 0.00137085179)
(1.80809046 -0.0135713975 0.00121313624)
(1.80849161 -0.0162904833 0.00107287716)
(1.80958195 -0.0178197863 0.000949613904)
(1.81116975 -0.0181463241 0.000842041256)
(1.81304717 -0.017277411 0.000748448046)
(1.81499611 -0.0152475108 0.000667037935)
(1.81679641 -0.0121237443 0.000596027933)
(1.81823558 -0.00800904041 0.000533622068)
(4.39670025 0.0238467269 0.340586271)
(3.86994557 0.0608713587 0.52469005)
(3.30408208 0.0864499802 0.41436842)
(2.75008886 0.101789889 0.260482631)
(2.38100628 0.108622061 0.145086397)
(2.1652629 0.108822177 0.0732497848)
(2.03290529 0.104215321 0.0342973278)
(1.95050191 0.0963811963 0.0155040452)
(1.90036653 0.0865549211 0.00723114064)
(1.8691555 0.0756460611 0.00395771739)
(1.84835667 0.0642981386 0.00286029637)
(1.83352086 0.0529520378 0.00256354712)
(1.82240826 0.0419063414 0.00247055155)
(1.81385639 0.0313659559 0.00237128701)
(1.80727322 0.0214761595 0.00221736924)
(1.80236403 0.0123458538 0.00201652416)
(1.79896865 0.00406378142 0.00179054968)
(1.79697589 -0.00329071301 0.00155963211)
(1.79628412 -0.00964120754 0.00133802516)
(1.79678093 -0.0149109031 0.00113423498)
(1.79833366 -0.0190232854 0.000952251248)
(1.80078411 -0.0219057751 0.000793170063)
(1.8039465 -0.0234956238 0.000656478486)
(1.80760822 -0.0237477629 0.000540826783)
(1.81153327 -0.0226438238 0.000444421885)
(1.81546892 -0.0202012851 0.000365226872)
(1.81915551 -0.0164812481 0.000301141212)
(1.82233935 -0.0115932889 0.000250145108)
(4.39624776 0.0195176789 0.340769143)
(3.86710264 0.0499017979 0.52521711)
(3.2970961 0.0712478422 0.415027026)
(2.73830586 0.0846116351 0.261037303)
(2.36503738 0.0912286541 0.145481023)
(2.14612178 0.0923801411 0.0735480998)
(2.0115658 0.0893602534 0.0345683161)
(1.92782892 0.0833420165 0.0157756126)
(1.8770626 0.0752890661 0.00750433882)
(1.84575283 0.0659551649 0.00422462708)
(1.82524962 0.0559108353 0.00311047521)
(1.8110012 0.0455760045 0.0027873535)
(1.80069399 0.0352581823 0.00266135283)
(1.79311448 0.0251874526 0.00252570085)
(1.78763709 0.0155427937 0.00233438709)
(1.78394679 0.0064711389 0.00209659653)
(1.7818727 -0.0018986572 0.00183495441)
(1.78129977 -0.00944584193 0.00157028356)
(1.78212557 -0.0160511213 0.00131735312)
(1.78423777 -0.0215938085 0.00108479253)
(1.78750097 -0.0259527738 0.000876765108)
(1.79174877 -0.0290105385 0.000694639178)
(1.79677948 -0.0306606142 0.000538117346)
(1.80235486 -0.0308176484 0.000405995311)
(1.80820284 -0.0294295022 0.000296666952)
(1.81402469 -0.0264899465 0.000208340848)
(1.81950735 -0.0220501172 0.000139119572)
(1.82434042 -0.0162264109 8.70067571e-05)
(4.39590922 0.0160291478 0.340910511)
(3.8649912 0.0410252644 0.525624899)
(3.29189684 0.0587808735 0.4155455)
(2.72943081 0.0702097705 0.26149294)
(2.35279001 0.0762305875 0.14583013)
(2.13114253 0.0777391178 0.073831203)
(1.99452449 0.0756570786 0.0348305988)
(1.9093619 0.0708511917 0.0160358703)
(1.85771916 0.0640643525 0.00776384746)
(1.82597664 0.0559076582 0.00447872261)
(1.8053918 0.0468696212 0.00335282895)
(1.79133872 0.0373309539 0.00301207687)
(1.78144736 0.0275879306 0.00286429651)
(1.774464 0.0178770475 0.00270455644)
(1.76973672 0.00839501949 0.00248812404)
(1.76693534 -0.00068596771 0.0022248647)
(1.76588275 -0.00920623612 0.00193788271)
(1.76646427 -0.0170092324 0.00164844501)
(1.76858132 -0.0239352964 0.00137141419)
(1.77212544 -0.0298191284 0.00111550549)
(1.77696173 -0.0344908336 0.000885033512)
(1.78291744 -0.037780952 0.000681573912)
(1.78977424 -0.0395296908 0.000505103301)
(1.79726419 -0.0396001854 0.000354798126)
(1.80507079 -0.0378950413 0.000229476998)
(1.81283641 -0.0343744737 0.000127789307)
(1.82017727 -0.0290734866 4.82539446e-05)
(1.826706 -0.0221146861 -1.08077558e-05)
(4.39564861 0.0131583225 0.341020628)
(3.86337589 0.0336972619 0.525943827)
(3.28791582 0.0483839794 0.415956115)
(2.72257384 0.0579924527 0.261863587)
(2.34318967 0.063219225 0.146126925)
(2.11920084 0.0647011473 0.074081452)
(1.98069715 0.0630981656 0.0350646205)
(1.89411097 0.0590487498 0.0162660185)
(1.84146727 0.0531199882 0.00799094874)
(1.80908563 0.0457985983 0.00469984877)
(1.78816568 0.0374917502 0.00356405648)
(1.77403195 0.0285321869 0.00320983997)
(1.76427492 0.0191923554 0.0030461526)
(1.75761251 0.00970188125 0.00286913621)
(1.75337491 0.000262739634 0.0026346718)
(1.75122353 -0.00893825029 0.0023530098)
(1.75098145 -0.0177185137 0.00204758303)
(1.75254058 -0.0258908676 0.00173965042)
(1.75581227 -0.0332574468 0.00144392646)
(1.76069809 -0.0396067805 0.00116909827)
(1.76706939 -0.044714821 0.000919550335)
(1.77475125 -0.0483508375 0.000697008787)
(1.78350997 -0.0502888763 0.000501710456)
(1.79304469 -0.0503250588 0.000333215877)
(1.80298532 -0.0483001809 0.000190830959)
(1.81289921 -0.0441257801 7.38035228e-05)
(1.822309 -0.0378102415 -1.86750066e-05)
(1.83072241 -0.0294798659 -8.76379549e-05)
(4.39544265 0.0107580835 0.341107483)
(3.86210576 0.0275554665 0.526196908)
(3.28478417 0.0396016078 0.416285164)
(2.71714124 0.0475337079 0.26216597)
(2.33549259 0.0518800022 0.146376068)
(2.10948795 0.0530957459 0.0742968616)
(1.96927405 0.0516544941 0.0352674359)
(1.88130803 0.0480246559 0.0164643718)
(1.82760377 0.0426343735 0.00818512735)
(1.79444983 0.0358644303 0.0048878085)
(1.7730131 0.0280458041 0.00374320356)
(1.75858832 0.019460079 0.00337790441)
(1.74874173 0.0103482466 0.00320163371)
(1.74217452 0.000923414782 0.00301113452)
(1.73820838 -0.00861718597 0.00276270094)
(1.73650513 -0.0180810349 0.00246694083)
(1.73689652 -0.0272700264 0.00214723533)
(1.73928943 -0.0359715761 0.00182451629)
(1.74361438 -0.0439516442 0.00151329799)
(1.74979291 -0.0509506838 0.00122214868)
(1.75771225 -0.0566839513 0.000955417287)
(1.76720348 -0.0608477025 0.000714887028)
(1.77802233 -0.0631327674 0.00050096678)
(1.78983399 -0.063246633 0.000313546957)
(1.80220542 -0.060944083 0.000152479728)
(1.81460928 -0.0560646508 1.77966768e-05)
(1.8264441 -0.0485724914 -9.03228264e-05)
(1.83707351 -0.0385911945 -0.00017184739)
(4.3952758 0.00872839042 0.341177174)
(3.86108069 0.0223519634 0.526401314)
(3.28225551 0.0321152935 0.416552984)
(2.71272845 0.0385243007 0.262415146)
(2.32917733 0.041972093 0.146585416)
(2.10141865 0.0427806221 0.0744811199)
(1.95965051 0.0412878531 0.0354420203)
(1.87036123 0.0378344402 0.0166347279)
(1.81556934 0.0327385224 0.00835111534)
(1.78155113 0.0262913373 0.00504785565)
(1.75945798 0.0187542421 0.00389546606)
(1.74456978 0.0103573002 0.00352080902)
(1.73444088 0.00130511356 0.00333410437)
(1.72776615 -0.00821326835 0.00313260009)
(1.72386881 -0.0180136833 0.00287308787)
(1.72242084 -0.027906321 0.00256615775)
(1.72327235 -0.0376853136 0.0022347611)
(1.72635648 -0.0471185815 0.0018995003)
(1.73163594 -0.055938737 0.00157464419)
(1.73906663 -0.0638366575 0.00126855165)
(1.74856689 -0.0704596576 0.000985380902)
(1.75998814 -0.0754166685 0.0007268005)
(1.77308623 -0.0782931291 0.000493254154)
(1.78749597 -0.0786781418 0.000284874677)
(1.80271339 -0.0762052952 0.000102082196)
(1.81809316 -0.0706061225 -5.40984344e-05)
(1.83286924 -0.0617710205 -0.00018204807)
(1.8462054 -0.0498069172 -0.000280002565)
(4.39513744 0.00699955473 0.341234285)
(3.86023259 0.017913269 0.526569764)
(3.28016147 0.0256986574 0.416774959)
(2.70905491 0.0307380778 0.262623455)
(2.32387409 0.0333120043 0.146762856)
(2.09456703 0.0336402853 0.074639389)
(1.95137467 0.0319596108 0.0355929006)
(1.86081659 0.0285132037 0.0167819781)
(1.80492357 0.0235312666 0.00849431551)
(1.76997059 0.0172290482 0.00518570449)
(1.74710469 0.00980464117 0.00402653786)
(1.73160106 0.00143707976 0.00364385036)
(1.72101144 -0.00770920957 0.00344839963)
(1.71403373 -0.0174754473 0.00323814627)
(1.71000184 -0.0276985132 0.00296996161)
(1.70860713 -0.0382004413 0.00265398876)
(1.70972935 -0.0487767095 0.00231278317)
(1.71334165 -0.0591834532 0.00196664952)
(1.71945571 -0.0691248567 0.00162950682)
(1.72808184 -0.0782424291 0.0013093221)
(1.73919205 -0.0861087191 0.0010098802)
(1.75268121 -0.0922290173 0.00073251121)
(1.76832562 -0.0960554827 0.000477439176)
(1.78574147 -0.0970185786 0.00024482582)
(1.80435049 -0.0945798738 3.55853305e-05)
(1.82336344 -0.088307344 -0.000148047847)
(1.84179619 -0.0779681283 -0.000302362637)
(1.85853257 -0.0636242651 -0.00042279946)
(4.39502016 0.00552203346 0.341282226)
(3.85951432 0.0141156256 0.526711626)
(3.27838507 0.0201883295 0.416962563)
(2.70592353 0.0240083822 0.26280054)
(2.31931854 0.0257604499 0.146915164)
(2.08862237 0.0255834101 0.0747766208)
(1.94410968 0.0236361442 0.0357244855)
(1.85232823 0.0200860634 0.016910612)
(1.79532351 0.0150919634 0.00861940017)
(1.75937473 0.00880385656 0.00530606705)
(1.73563061 0.00136171732 0.00414091464)
(1.71936784 -0.00710612372 0.00375137175)
(1.70814247 -0.0164784792 0.0035490795)
(1.70066234 -0.0266329547 0.0033322116)
(1.696279 -0.0374363888 0.00305725401)
(1.69471211 -0.0487334263 0.00273398423)
(1.6958827 -0.0603323662 0.00238468975)
(1.69981963 -0.0719886835 0.00202926078)
(1.70660425 -0.0833870368 0.00168111809)
(1.71632772 -0.0941236474 0.00134767207)
(1.7290477 -0.103692119 0.00103209156)
(1.74473824 -0.111477465 0.000735035688)
(1.76323089 -0.11676519 0.00045608404)
(1.78414981 -0.118773943 0.000194981069)
(1.80684945 -0.11672061 -4.71679484e-05)
(1.83037123 -0.109924027 -0.000266793251)
(1.85344352 -0.0979450329 -0.000457225577)
(1.87455353 -0.0807459624 -0.000609515412)
(4.39491878 0.00425993299 0.341323503)
(3.85889288 0.0108691439 0.526833742)
(3.27684434 0.0154646647 0.417124249)
(2.70319505 0.0182113678 0.262953702)
(2.31532153 0.0192119051 0.147047755)
(2.08335875 0.0185393743 0.0748969849)
(1.93760646 0.0162912814 0.0358404904)
(1.84463605 0.0125747424 0.017024256)
(1.78650691 0.00748949764 0.00872991635)
(1.74950372 0.00112834501 0.00541224066)
(1.72477904 -0.00642305583 0.00424185096)
(1.70761462 -0.0150866563 0.00384708537)
(1.69557443 -0.024787711 0.00363983286)
(1.6873795 -0.0354473673 0.00341799904)
(1.68240382 -0.046972868 0.00313785636)
(1.6804027 -0.059244498 0.00280899117)
(1.68134963 -0.0720986593 0.00245332342)
(1.68534565 -0.0853065265 0.00209025329)
(1.69256574 -0.0985487285 0.00173259747)
(1.70321544 -0.111387594 0.0013870427)
(1.71748186 -0.123240122 0.0010558599)
(1.73547095 -0.13335775 0.000738587428)
(1.75712672 -0.140822585 0.000433506452)
(1.78213261 -0.144573862 0.000139129231)
(1.80980439 -0.143481599 -0.000144004229)
(1.83899728 -0.136484128 -0.000411232209)
(1.86806476 -0.122796473 -0.000652098753)
(1.89492904 -0.102176043 -0.000850631749)
(4.39482965 0.00318670886 0.341359926)
(3.8583452 0.00810722627 0.526941042)
(3.27548189 0.0114385082 0.417266143)
(2.7007715 0.0132538437 0.263088331)
(2.3117488 0.0135860661 0.147164747)
(2.07861418 0.0124542239 0.0750037267)
(1.93168454 0.00990644632 0.0359437628)
(1.83754966 0.00600095616 0.0171255034)
(1.77827946 0.000787329666 0.00882810171)
(1.74016247 -0.00569274424 0.0055064798)
(1.71435518 -0.0134044365 0.00433227603)
(1.69614437 -0.0223198759 0.00393391758)
(1.68310119 -0.0324149753 0.0037230217)
(1.67396005 -0.0436625896 0.00349753506)
(1.6681191 -0.0560222824 0.00321370474)
(1.6653735 -0.0694261513 0.0028808682)
(1.66575771 -0.0837589876 0.00252054066)
(1.66946061 -0.0988314369 0.00215159131)
(1.67677709 -0.114345594 0.00178619345)
(1.68806711 -0.129853392 0.00143019819)
(1.70370435 -0.144710406 0.00108470566)
(1.72400228 -0.158031661 0.000747614928)
(1.74910727 -0.168661818 0.000415028189)
(1.77885433 -0.175180298 8.29436087e-05)
(1.81259094 -0.175970735 -0.000250133185)
(1.84899558 -0.16939113 -0.000579616197)
(1.88594591 -0.154075421 -0.000890706244)
(1.92055631 -0.129372993 -0.00115623286)
(4.39475024 0.00228219623 0.341392766)
(3.85785537 0.00577921539 0.527037002)
(3.27425825 0.00804175328 0.417392586)
(2.69858534 0.00906409823 0.263208278)
(2.30850749 0.00882066971 0.147269122)
(2.0742763 0.00728634779 0.0750991785)
(1.92621858 0.00446927253 0.0360361684)
(1.83093634 0.00038662907 0.0172157006)
(1.77050549 -0.0049550692 0.00891543615)
(1.73121584 -0.0115594138 0.00559113905)
(1.7042247 -0.0194393814 0.0044145353)
(1.68481965 -0.02861808 0.00401355239)
(1.67057504 -0.0391266114 0.00379999297)
(1.66023499 -0.0509979594 0.00357201046)
(1.65321892 -0.0642574975 0.00328578771)
(1.64936091 -0.07890858 0.00295040206)
(1.64875997 -0.0949106061 0.00258697306)
(1.65170465 -0.112146999 0.00221387724)
(1.65863472 -0.130380672 0.00184267629)
(1.67010903 -0.149195238 0.00147836607)
(1.68675896 -0.167922486 0.00112074903)
(1.70920872 -0.185561094 0.000765660987)
(1.73794319 -0.200700126 0.000406055502)
(1.77310676 -0.211475093 3.36580403e-05)
(1.81422584 -0.215602686 -0.000357628307)
(1.85987563 -0.210564894 -0.000766234755)
(1.90737307 -0.19402081 -0.00117182783)
(1.95266867 -0.164518442 -0.00152885611)
(4.39467886 0.00153044719 0.341422884)
(3.85741287 0.00384507231 0.527123992)
(3.27314735 0.0052203331 0.417506539)
(2.69659212 0.00558471571 0.263316164)
(2.30553685 0.00486534741 0.147362883)
(2.07027251 0.00300227813 0.075184707)
(1.92112805 -2.99003575e-05 0.0361182946)
(1.82471202 -0.00424849697 0.017295766)
(1.76310275 -0.00968262178 0.00899385336)
(1.72258599 -0.0163760086 0.005668178)
(1.69431315 -0.0243871946 0.00448985048)
(1.67356595 -0.0337907083 0.00408689329)
(1.65791445 -0.044676378 0.00387144892)
(1.64610401 -0.0571454638 0.00364183548)
(1.63756613 -0.0713033731 0.00335415001)
(1.63216553 -0.0872468196 0.00301721409)
(1.63006099 -0.105041899 0.00265179019)
(1.63164383 -0.124688848 0.00227583744)
(1.63751647 -0.146068456 0.00190040089)
(1.64847981 -0.168864719 0.00152977996)
(1.66550442 -0.192459353 0.0011626976)
(1.6896588 -0.215797675 0.00079300405)
(1.72196289 -0.237236116 0.000410047372)
(1.76312776 -0.254401936 -4.77208194e-07)
(1.81313904 -0.264129583 -0.000453640754)
(1.87069314 -0.262602356 -0.000957413925)
(1.93252892 -0.245851562 -0.00148686359)
(1.9929726 -0.21088371 -0.00196984369)
(4.39461453 0.000917940692 0.341450876)
(3.85701137 0.00227132651 0.527203576)
(3.27213355 0.0029288879 0.417609905)
(2.69476541 0.00276684147 0.263413588)
(2.30280196 0.00167658465 0.147447075)
(2.06656178 -0.000428846692 0.0752603158)
(1.91636922 -0.00360295743 0.0361907308)
(1.81883655 -0.0078895267 0.0173674437)
(1.75603887 -0.0133468827 0.00906506077)
(1.71424966 -0.0200546772 0.0057384989)
(1.68460661 -0.0281137934 0.00455885985)
(1.66237661 -0.0376487296 0.00415437414)
(1.64511414 -0.0488098042 0.00393749784)
(1.63155165 -0.0617729891 0.00370668042)
(1.62111614 -0.07673685 0.00341790206)
(1.61368457 -0.0939141698 0.00307969298)
(1.60945764 -0.113513862 0.00271242219)
(1.60891687 -0.13570715 0.00233360542)
(1.61282906 -0.16056979 0.00195386467)
(1.62226708 -0.187989384 0.00157716144)
(1.63862031 -0.217524784 0.00120183899)
(1.66356062 -0.24820544 0.000821021532)
(1.69891321 -0.278266863 0.00042233112)
(1.74635579 -0.304840838 -1.29714232e-05)
(1.80684148 -0.323673573 -0.000509083836)
(1.87971026 -0.329069271 -0.00109224499)
(1.96132134 -0.314319949 -0.00174502686)
(2.04389452 -0.273449146 -0.00240086954)
(4.39455718 0.000432088146 0.341477463)
(3.85664852 0.00102782171 0.527277006)
(3.27120963 0.00112695647 0.417703812)
(2.69309334 0.000565336857 0.263501113)
(2.30028753 -0.000788327666 0.147521375)
(2.06312814 -0.00304118732 0.0753264555)
(1.9119315 -0.00626733776 0.0362551871)
(1.81330966 -0.010529925 0.017432287)
(1.74932653 -0.0159115212 0.00912978949)
(1.70623567 -0.0225221119 0.00580256417)
(1.6751526 -0.0304994377 0.0046218177)
(1.65131807 -0.0400139903 0.00421595716)
(1.63225597 -0.0512750973 0.00399770915)
(1.61666626 -0.0645359331 0.00376558602)
(1.60394632 -0.0800971978 0.00347532823)
(1.59395446 -0.0983071115 0.00313498376)
(1.58689753 -0.119552973 0.00276426286)
(1.58331045 -0.144236941 0.00237993328)
(1.58409544 -0.172724597 0.00199196246)
(1.5905938 -0.205248724 0.00160406928)
(1.60466652 -0.241743148 0.00121515436)
(1.62874777 -0.2815741 0.000820337713)
(1.66580182 -0.323134084 0.000410915256)
(1.71905794 -0.363276034 -2.61016045e-05)
(1.79134928 -0.396655346 -0.000506048753)
(1.88379034 -0.415087467 -0.00105582701)
(1.99319287 -0.407429028 -0.00163857118)
(2.1095624 -0.361699744 -0.00232821006)
(4.39450781 6.22586406e-05 0.341504037)
(3.85632665 8.62486718e-05 0.527345873)
(3.27037553 -0.000225827519 0.417788802)
(2.69157398 -0.00106585193 0.263578998)
(2.29799386 -0.00257576526 0.14758653)
(2.05997864 -0.00487460805 0.0753850559)
(1.90783333 -0.00804949176 0.0363131662)
(1.80816449 -0.0121776838 0.0174908934)
(1.74301844 -0.0173597799 0.00918834931)
(1.69862207 -0.0237283158 0.00586048305)
(1.66605964 -0.0314500159 0.00467859555)
(1.64053313 -0.0407338558 0.00427123219)
(1.61951827 -0.0518416185 0.0040512929)
(1.60165832 -0.0650994414 0.00381717891)
(1.58628779 -0.0809107649 0.00352410417)
(1.57320178 -0.0997691155 0.00317917398)
(1.56255565 -0.122266722 0.00280073231)
(1.55486744 -0.149091774 0.0024038006)
(1.55109756 -0.181001223 0.0019964727)
(1.5527885 -0.21874587 0.00158114957)
(1.56225272 -0.26290841 0.00115744676)
(1.582782 -0.313592212 0.000725687391)
(1.6188065 -0.369869729 0.000289544085)
(1.67585628 -0.428909339 -0.000139489262)
(1.76006829 -0.484728477 -0.000549209474)
(1.8766451 -0.526449303 -0.000948851695)
(2.02568238 -0.536957361 -0.00118894102)
(2.19781712 -0.492794912 -0.00183920343)
(4.39446598 -0.000200738532 0.341529938)
(3.85604583 -0.000581870114 0.527409368)
(3.26963379 -0.00117301052 0.417864667)
(2.69021427 -0.00217638499 0.263647877)
(2.29593511 -0.00373698704 0.147644258)
(2.0571385 -0.00597749902 0.0754373264)
(1.90411471 -0.00899072419 0.0363650981)
(1.8034611 -0.0128620224 0.0175433612)
(1.73720178 -0.0177021848 0.00924065655)
(1.69153112 -0.0236569114 0.00591201609)
(1.65749361 -0.0309112584 0.00472879968)
(1.63024012 -0.039700683 0.00431960794)
(1.60718023 -0.050326168 0.00409733676)
(1.58687395 -0.0631729576 0.00385998174)
(1.568554 -0.0787344916 0.00356173721)
(1.55189582 -0.0976417489 0.00320791536)
(1.53692312 -0.1206965 0.00281405027)
(1.52402702 -0.148904292 0.00239108121)
(1.51408341 -0.183496804 0.00194175114)
(1.50866858 -0.225920296 0.00146273406)
(1.51038816 -0.277741607 0.000950624418)
(1.52332743 -0.340376282 0.000413370179)
(1.55359022 -0.414460691 -0.000110521214)
(1.60980586 -0.498689444 -0.000536380687)
(1.70336192 -0.587611468 -0.000785133002)
(1.84716985 -0.667922526 -0.000856328297)
(2.05186097 -0.714957003 -0.000882715375)
(2.32064906 -0.681068279 -0.00362900599)
(4.39443003 -0.000368959867 0.341552742)
(3.85580304 -0.00100831199 0.52746472)
(3.26898868 -0.00176043413 0.417930532)
(2.68902855 -0.00282102564 0.263707773)
(2.29413459 -0.00433207317 0.147694673)
(2.05464397 -0.00641221883 0.075483174)
(1.90083075 -0.00915231342 0.0364106943)
(1.79927998 -0.0126387832 0.0175893361)
(1.73199066 -0.0169840081 0.00928631113)
(1.68512082 -0.0223359398 0.00595672273)
(1.64966897 -0.0288844327 0.00477194044)
(1.62072497 -0.03687464 0.00436050074)
(1.59561684 -0.0466259007 0.00413506211)
(1.57279675 -0.0585569394 0.00389282382)
(1.55135656 -0.0732205361 0.00358626903)
(1.53079033 -0.0913505831 0.00321763126)
(1.5108938 -0.113924515 0.0027972358)
(1.49178373 -0.142243978 0.00232753476)
(1.47403252 -0.17803401 0.00179808348)
(1.45894163 -0.223552095 0.00118665449)
(1.44901529 -0.281674483 0.000467351268)
(1.4487302 -0.355858922 -0.000363567521)
(1.46572056 -0.449838384 -0.00123166963)
(1.51246096 -0.566540067 -0.00191114507)
(1.60848259 -0.705203579 -0.00205760148)
(1.78027585 -0.85474338 -0.00108415464)
(2.06513974 -0.980913446 0.000113348436)