/*--------------------------------*- C++ -*----------------------------------*\
| =========                 |                                                 |
| \\      /  F ield         | foam-extend: Open Source CFD                    |
|  \\    /   O peration     | Version:     4.1                                |
|   \\  /    A nd           | Web:         http://www.foam-extend.org         |
|    \\/     M anipulation  |                                                 |
\*---------------------------------------------------------------------------*/
FoamFile
{
    version     2.0;
    format      ascii;
    class       volVectorField;
    location    "0.6";
    object      U_0;
}
// * * * * * * * * * * * * * * * * * * * * * * * * * * * * * * * * * * * * * //

dimensions      [0 1 -1 0 0 0 0];

internalField   nonuniform List<vector> 
35840
(
(3.94086015 0.268528701 0.261844441)
(3.20795294 0.371832083 0.357379787)
(2.4382947 0.266507745 0.249860535)
(1.720345 0.156946139 0.141978258)
(1.29366443 0.0888184732 0.0772228193)
(1.05217573 0.0517268176 0.0439386844)
(0.893414837 0.0312075388 0.0270965337)
(0.785199832 0.0189964121 0.0180810574)
(0.711670762 0.0115252207 0.0131436992)
(0.660013103 0.00695033445 0.0104210953)
(0.622020951 0.00409611478 0.00881278675)
(0.593028773 0.00226413365 0.00773408864)
(0.57025221 0.00106412189 0.00691368542)
(0.551934783 0.000268463274 0.00622973865)
(0.536942653 -0.000262166876 0.00562754936)
(0.524519835 -0.000614063775 0.00508354512)
(0.514136627 -0.000841178964 0.00458765688)
(0.505399965 -0.000978674794 0.00413445553)
(0.498011302 -0.00104992369 0.00372012652)
(0.491730203 -0.00106998425 0.00334147874)
(0.486357205 -0.00104905609 0.00299548541)
(0.481723159 -0.000994665389 0.00267940869)
(0.477681861 -0.000912752199 0.00239095948)
(0.47410545 -0.000808265498 0.0021282961)
(0.470881329 -0.000685629713 0.00188999916)
(0.467910248 -0.000549067116 0.00167502606)
(0.465105216 -0.000402767126 0.00148264212)
(0.462390985 -0.000250922074 0.00131233599)
(4.52124931 0.409953901 0.331399891)
(4.2022451 0.638138642 0.509000135)
(3.63676084 0.543499226 0.407274515)
(2.94288954 0.391294954 0.261504979)
(2.41564308 0.267509627 0.152218008)
(2.06111626 0.181553874 0.0859695357)
(1.80858186 0.12404937 0.0502542066)
(1.6243121 0.0850874606 0.0317450368)
(1.49023742 0.0584874102 0.0220732628)
(1.39079557 0.0403530423 0.01691635)
(1.31474796 0.0279094472 0.0139987371)
(1.2550686 0.0192457272 0.0121412464)
(1.20725904 0.0131149536 0.0107952498)
(1.16828921 0.00870680158 0.00972089034)
(1.13608115 0.00549072172 0.00880943429)
(1.10918203 0.00311962136 0.00800875398)
(1.08654086 0.00136568567 0.00729217931)
(1.06737095 7.68760231e-05 0.00664419014)
(1.05105622 -0.00085009845 0.00605385187)
(1.03710276 -0.00148657595 0.00551224215)
(1.02510567 -0.00188347698 0.00501189242)
(1.01472476 -0.00207854162 0.00454688276)
(1.00566666 -0.00210117931 0.0041127691)
(0.997675356 -0.00197582631 0.00370631112)
(0.990525435 -0.00172411847 0.00332530006)
(0.984017621 -0.00136634631 0.00296843136)
(0.977976048 -0.000922353173 0.00263516857)
(0.972246807 -0.000411967894 0.00232557742)
(4.44213347 0.221362438 0.337951902)
(4.08278405 0.436518833 0.51881908)
(3.65713697 0.463120658 0.418089294)
(3.1371225 0.408861337 0.275889002)
(2.7197826 0.33189843 0.16645781)
(2.42181891 0.257611758 0.0961046326)
(2.19809802 0.195686387 0.0564747679)
(2.02634957 0.147068603 0.0358935246)
(1.89484551 0.109818837 0.0253545939)
(1.79242812 0.0816808152 0.0198166537)
(1.71054568 0.0605804683 0.0166849392)
(1.64377221 0.0447661004 0.0146451668)
(1.58856164 0.0328607229 0.0130993611)
(1.5424088 0.0238282358 0.0118087362)
(1.50349394 0.0169123752 0.0106811937)
(1.47046988 0.0115750134 0.00967848026)
(1.44230813 0.00743928941 0.00878165318)
(1.41819929 0.00424269931 0.00797760259)
(1.39748942 0.00180156068 0.00725422771)
(1.37963966 -1.48448231e-05 0.00659970926)
(1.36419343 -0.00130160005 0.00600298205)
(1.35075964 -0.00213029009 0.00545429101)
(1.33899785 -0.00255733478 0.00494559507)
(1.32860725 -0.00263010146 0.00447064654)
(1.31931995 -0.0023911904 0.00402485981)
(1.31089649 -0.00188129685 0.00360513846)
(1.3031231 -0.00114102243 0.00320967353)
(1.2958103 -0.000211855709 0.00283770595)
(4.4137073 0.123370945 0.337929113)
(3.97527227 0.285998362 0.516843233)
(3.5261438 0.346946947 0.410944822)
(3.0482676 0.341770668 0.267055973)
(2.69650562 0.304740213 0.158688195)
(2.46049638 0.256438507 0.089311934)
(2.28810463 0.208558802 0.0503490761)
(2.15601119 0.166283876 0.0306485487)
(2.05356475 0.13089294 0.0211766923)
(1.97169636 0.102064878 0.0166829191)
(1.90391781 0.0789507864 0.0144653817)
(1.84653266 0.0605740774 0.013166696)
(1.79737853 0.0460072705 0.0121774738)
(1.75499978 0.0344498987 0.0112779484)
(1.71833289 0.0252526884 0.0104114439)
(1.68655649 0.0179126157 0.00957577522)
(1.65899881 0.0120525139 0.00878195619)
(1.63508808 0.007395465 0.00803949346)
(1.61432753 0.00374015011 0.00735223531)
(1.59628044 0.00094009362 0.00671890562)
(1.58055863 -0.00111289018 0.0061349493)
(1.56681431 -0.00250154765 0.00559458479)
(1.55473341 -0.00329225775 0.0050918365)
(1.54403046 -0.00354208086 0.00462125784)
(1.53444504 -0.00330416393 0.00417837303)
(1.52573955 -0.00263149432 0.0037598477)
(1.51769823 -0.00157930537 0.0033634886)
(1.51012697 -0.000206361149 0.00298813706)
(4.40562834 0.0838884137 0.33853013)
(3.92709463 0.205875821 0.518667037)
(3.43458537 0.264642985 0.409525414)
(2.94274287 0.27465149 0.261033462)
(2.60543645 0.257685303 0.150311001)
(2.39688677 0.227990562 0.0805997306)
(2.25547044 0.19424263 0.0421472231)
(2.15330129 0.161521911 0.0232698771)
(2.07740433 0.132109724 0.0147411154)
(2.01793211 0.106656768 0.0111881105)
(1.96847976 0.0850920039 0.0098464678)
(1.9257956 0.0670546225 0.00933182502)
(1.88829481 0.0520821023 0.00901891402)
(1.85511128 0.0397050658 0.00868359719)
(1.82571275 0.0294971466 0.00827685728)
(1.79972145 0.0210971838 0.00781072466)
(1.77681848 0.0142138431 0.00731213285)
(1.75670391 0.00862023303 0.00680576966)
(1.73908623 0.00414382363 0.0063087805)
(1.72368138 0.00065514008 0.0058307464)
(1.71021436 -0.00194376615 0.00537561908)
(1.69842126 -0.00372909438 0.00494420153)
(1.68804879 -0.00476330926 0.00453531573)
(1.67885556 -0.00510220962 0.00414687658)
(1.67061273 -0.00480055461 0.00377669838)
(1.66310502 -0.00391622002 0.00342294938)
(1.65613219 -0.00251299546 0.00308437142)
(1.64951091 -0.000662064978 0.00276035366)
(4.40178203 0.0613580699 0.339164408)
(3.90241993 0.153225044 0.520512842)
(3.38074958 0.204413302 0.410097788)
(2.86922746 0.221087472 0.258746964)
(2.52752356 0.21576091 0.145978548)
(2.32479389 0.198104494 0.0755286292)
(2.19491598 0.174669531 0.0370211658)
(2.10726064 0.149838526 0.0183391965)
(2.04674994 0.126049428 0.0101161296)
(2.00218151 0.104369851 0.0069129939)
(1.96646537 0.0851444216 0.00592970181)
(1.93605967 0.0683761402 0.00577172134)
(1.90931626 0.0539083148 0.00580769772)
(1.88544429 0.0415186938 0.00580463705)
(1.86406139 0.0309722804 0.00570600282)
(1.84496776 0.022049939 0.00551984936)
(1.8280216 0.0145619746 0.00527215916)
(1.81308386 0.00835248758 0.00498878197)
(1.80000133 0.0032981703 0.00468935992)
(1.78860364 -0.000696155921 0.00438649554)
(1.7787092 -0.00370413839 0.00408755525)
(1.77012522 -0.00578406216 0.00379642852)
(1.76265394 -0.00698552899 0.00351452447)
(1.75609563 -0.0073558933 0.00324189082)
(1.75025188 -0.00694569127 0.00297801014)
(1.74492916 -0.00581298634 0.00272226817)
(1.7399425 -0.00402646578 0.00247422677)
(1.73511944 -0.00166708054 0.00223377004)
(4.39956874 0.0466858252 0.339653132)
(3.88830761 0.117717661 0.521952704)
(3.34832773 0.161233849 0.411268004)
(2.8210517 0.180137406 0.258564621)
(2.47124212 0.181412304 0.144562083)
(2.26670885 0.171534364 0.0734995325)
(2.13927701 0.155446371 0.0347863064)
(2.05696215 0.136716881 0.0160484447)
(2.00348046 0.117588576 0.00782465801)
(1.96669743 0.0992688936 0.00464259993)
(1.93893942 0.0823325396 0.00368820338)
(1.91631022 0.0670072383 0.00357065826)
(1.89694655 0.0533353211 0.00366565492)
(1.87994261 0.0412648897 0.00374103339)
(1.86487431 0.0307024706 0.00373644934)
(1.85154862 0.0215431293 0.00365497847)
(1.83985904 0.0136871199 0.00351798149)
(1.82971593 0.00704826071 0.00334754899)
(1.82101955 0.00155703172 0.00316059153)
(1.8136511 -0.00284048921 0.00296804292)
(1.80747412 -0.00618557251 0.00277653363)
(1.80233359 -0.00851078158 0.00258952266)
(1.79806106 -0.00984596357 0.00240829478)
(1.79447803 -0.0102239699 0.0022329546)
(1.79140003 -0.00968601338 0.00206307139)
(1.78864139 -0.00828633839 0.00189805564)
(1.78602048 -0.00609571917 0.00173738364)
(1.78336547 -0.0032033289 0.00158072385)
(4.39821803 0.0366429429 0.34004257)
(3.87962171 0.0929669774 0.523108464)
(3.32763834 0.129540608 0.41249434)
(2.7886383 0.148154227 0.259131716)
(2.43117826 0.152908727 0.144406963)
(2.22294649 0.148081416 0.0729494471)
(2.09470115 0.137279813 0.0341018717)
(2.01369407 0.123280088 0.0153178569)
(1.96294864 0.107990277 0.00705788621)
(1.92975961 0.092590945 0.00382896826)
(1.90607314 0.0777606192 0.00281325227)
(1.88774725 0.0638635564 0.00262800544)
(1.87275113 0.0510768228 0.00266112277)
(1.86006544 0.0394708181 0.00268859987)
(1.84919443 0.0290584652 0.00265307291)
(1.83990508 0.0198250047 0.00255748338)
(1.83207373 0.0117460127 0.00242153538)
(1.82560887 0.00479786671 0.00226501729)
(1.82041728 -0.00103708085 0.00210240522)
(1.81639299 -0.00576953227 0.00194273347)
(1.81340935 -0.00940392305 0.00179106147)
(1.8113208 -0.0119420188 0.00164942103)
(1.80996401 -0.0133882198 0.00151802171)
(1.80916063 -0.0137552219 0.00139614281)
(1.80872144 -0.0130698752 0.00128264676)
(1.80845157 -0.0113785946 0.0011762926)
(1.80815715 -0.00875159428 0.00107589442)
(1.80765291 -0.00528523042 0.000980388028)
(4.39732451 0.0293653164 0.340349103)
(3.87390183 0.0747784719 0.524004175)
(3.31376128 0.105382171 0.413534464)
(2.76614608 0.122579884 0.259831337)
(2.40226975 0.128946604 0.144687063)
(2.19013455 0.127294754 0.0729958956)
(2.05998492 0.12019946 0.034082093)
(1.978628 0.109769266 0.0152879243)
(1.9286519 0.0975598103 0.00701505914)
(1.89697208 0.0846340291 0.00375493418)
(1.87527016 0.0716812755 0.00268711066)
(1.85923072 0.0591304478 0.00243412148)
(1.84670553 0.0472406729 0.00239347276)
(1.83659428 0.0361660362 0.002349516)
(1.8283463 0.0259978618 0.00224992752)
(1.82169305 0.0167919421 0.00210007685)
(1.81648965 0.00858630414 0.00192047346)
(1.81263319 0.00141245463 0.00173070836)
(1.81002576 -0.00469866352 0.00154463473)
(1.80855838 -0.00971395811 0.00137064701)
(1.80810246 -0.0135984191 0.00121290721)
(1.80850803 -0.0163188122 0.00107262793)
(1.80960322 -0.0178487815 0.000949349227)
(1.8111962 -0.0181752144 0.000841766364)
(1.81307894 -0.01730532 0.000748169262)
(1.81503319 -0.0152734949 0.000666762118)
(1.81683853 -0.0121468434 0.000595761082)
(1.81828229 -0.00802833871 0.000533369444)
(4.39670021 0.0238470116 0.340586312)
(3.86994526 0.0608720861 0.524690146)
(3.3040812 0.0864509769 0.414368532)
(2.75008726 0.101790956 0.26048274)
(2.3810039 0.108622994 0.1450865)
(2.16525971 0.108822758 0.0732498908)
(2.03290128 0.104215315 0.0342974399)
(1.95049709 0.0963803597 0.0155041597)
(1.90036096 0.086552997 0.00723125124)
(1.86914929 0.0756427808 0.00395781759)
(1.84834994 0.0642932238 0.00286038004)
(1.83351382 0.052945206 0.00256360871)
(1.82240117 0.0418973135 0.00247058634)
(1.81384956 0.0313544671 0.00237129099)
(1.80726706 0.0214619735 0.00221733898)
(1.80235901 0.0123287803 0.00201645676)
(1.7989653 0.00404369693 0.00179044278)
(1.79697481 -0.00331384324 0.00155948373)
(1.79628598 -0.00966730366 0.00133783586)
(1.79678641 -0.0149397451 0.00113400654)
(1.79834345 -0.019054492 0.000951986792)
(1.80079888 -0.0219387879 0.000792874402)
(1.80396682 -0.0235297015 0.000656158543)
(1.80763454 -0.0237819885 0.000540491731)
(1.81156585 -0.022677131 0.000444081473)
(1.81550778 -0.0202325049 0.000364890907)
(1.8192004 -0.0165091737 0.000300820083)
(1.8223897 -0.0116167569 0.00024984819)
(4.39624771 0.0195180903 0.340769193)
(3.86710225 0.0499028528 0.525217226)
(3.29709503 0.0712493181 0.41502716)
(2.73830388 0.0846132916 0.261037432)
(2.36503444 0.091230254 0.145481144)
(2.14611782 0.0923814339 0.0735482227)
(2.01156078 0.0893609718 0.0345684475)
(1.92782285 0.0833418797 0.0157757497)
(1.87705551 0.0752877783 0.00750447523)
(1.8457448 0.0659524135 0.00422475601)
(1.82524076 0.0559062923 0.00311058983)
(1.81099172 0.0455693312 0.00278744732)
(1.80068415 0.0352490367 0.00266141993)
(1.79310462 0.0251755005 0.00252573578)
(1.78762764 0.0155277245 0.00233438473)
(1.78393827 0.0064526855 0.00209655203)
(1.78186572 -0.00192069421 0.00183486326)
(1.78129504 -0.00947156515 0.00157014242)
(1.78212387 -0.0160805027 0.00131716081)
(1.78423996 -0.021626656 0.00108454947)
(1.78750792 -0.0259886988 0.000876473923)
(1.79176133 -0.0290489284 0.00069430543)
(1.79679843 -0.0307006173 0.000537749369)
(1.80238084 -0.0308581761 0.000405604374)
(1.80823625 -0.0294692542 0.000296266852)
(1.81406564 -0.0265274661 0.000207947028)
(1.81955558 -0.0220838758 0.000138748174)
(1.82439529 -0.0162549177 8.66727968e-05)
(4.39590916 0.0160297136 0.340910572)
(3.86499074 0.041026719 0.525625036)
(3.29189554 0.0587829368 0.415545657)
(2.72942843 0.0702121557 0.261493089)
(2.35278647 0.0762330211 0.145830268)
(2.13113774 0.077741316 0.073831343)
(1.99451838 0.0756587389 0.0348307495)
(1.90935445 0.0708519952 0.0160360297)
(1.85771038 0.0640639611 0.0077640092)
(1.82596657 0.0559057109 0.00447887979)
(1.80538056 0.0468657343 0.00335297425)
(1.79132649 0.037324724 0.00301220297)
(1.78143438 0.0275789415 0.00286439638)
(1.77445063 0.017864881 0.00270462323)
(1.76972341 0.00837927186 0.00248815077)
(1.76692267 -0.00070566356 0.00222484423)
(1.7658714 -0.00923018166 0.00193780857)
(1.76645506 -0.0170376272 0.00164831212)
(1.7685752 -0.0239681956 0.00137121894)
(1.77212344 -0.0298563966 0.00111524641)
(1.77696495 -0.0345320971 0.000884712213)
(1.78292699 -0.0378255554 0.000681196083)
(1.78979116 -0.0395766662 0.000504679125)
(1.79728938 -0.039648243 0.000354342568)
(1.80510486 -0.0379425921 0.000229009339)
(1.81287962 -0.0344196931 0.000127331856)
(1.8202294 -0.0291144226 4.7830235e-05)
(1.82676631 -0.0221494074 -1.11754716e-05)
(4.39564854 0.0131590725 0.341020699)
(3.86337535 0.0336991937 0.525943987)
(3.2879143 0.0483867464 0.415956297)
(2.72257104 0.0579957172 0.261863757)
(2.34318547 0.0632226751 0.14612708)
(2.11919514 0.0647044649 0.0740816089)
(1.98068985 0.0631010124 0.03506479)
(1.89410202 0.0590507678 0.0162661995)
(1.84145664 0.0531207949 0.00799113496)
(1.80907334 0.0457977809 0.0047000332)
(1.78815179 0.0374888638 0.00356423139)
(1.77401662 0.0285267557 0.00320999727)
(1.76425838 0.019183877 0.00304628417)
(1.75759511 0.00968983733 0.00286923358)
(1.75335712 0.000246611479 0.0026347258)
(1.75120595 -0.00895895734 0.00235301116)
(1.75096486 -0.0177442367 0.002047523)
(1.75252592 -0.0259219426 0.00173952078)
(1.75580064 -0.0332940552 0.00144372042)
(1.76069075 -0.0396488865 0.00116881184)
(1.76706772 -0.0447621032 0.000919183777)
(1.77475669 -0.0484026228 0.000696568102)
(1.78352391 -0.0503440839 0.000501208416)
(1.79306838 -0.050382171 0.000332672722)
(1.8030197 -0.0483572553 0.000190273896)
(1.81294476 -0.0441805186 7.32649849e-05)
(1.82236557 -0.0378601272 -1.91602648e-05)
(1.83078918 -0.029522366 -8.803686e-05)
(4.39544257 0.0107590491 0.341107567)
(3.86210513 0.0275579577 0.526197092)
(3.28478241 0.0396052023 0.416285372)
(2.71713799 0.0475380127 0.262166163)
(2.33548772 0.0518846658 0.146376241)
(2.10948131 0.0531004164 0.0742970352)
(1.96926551 0.0516587982 0.0352676236)
(1.88129748 0.0480281968 0.0164645735)
(1.82759115 0.0426367238 0.00818533677)
(1.7944351 0.0358651239 0.00488801861)
(1.7729963 0.0280443311 0.00374340623)
(1.75856955 0.0194558841 0.00337809076)
(1.74872119 0.0103407304 0.00320179435)
(1.74215253 0.000911941512 0.0030112591)
(1.7381854 -0.00863327389 0.00276277815)
(1.7364818 -0.0181023918 0.00246695885)
(1.73687368 -0.0272972667 0.0021471816)
(1.73926813 -0.0360052234 0.00182437827)
(1.74359591 -0.0439920645 0.0015130647)
(1.74977878 -0.0509980035 0.00122181262)
(1.75770418 -0.0567379618 0.000954976643)
(1.76720333 -0.0609077598 0.000714348204)
(1.77803195 -0.0631976998 0.000500346482)
(1.78985514 -0.0633146757 0.000312873541)
(1.80223949 -0.0610128661 0.000151792915)
(1.81465709 -0.0561312667 1.71451304e-05)
(1.82650569 -0.0486336649 -9.08861954e-05)
(1.83714796 -0.0386435601 -0.000172272068)
(4.39527571 0.00872960412 0.341177269)
(3.86107998 0.022355099 0.526401523)
(3.28225351 0.0321198442 0.416553219)
(2.71272474 0.0385298146 0.26241536)
(2.32917176 0.0419781792 0.146585607)
(2.10141103 0.0427868962 0.0744813095)
(1.95964065 0.0412939094 0.0354422252)
(1.870349 0.0378398455 0.0166349488)
(1.81555461 0.0327428065 0.00835134614)
(1.78153381 0.0262939816 0.00504808917)
(1.75943804 0.0187546704 0.00389569376)
(1.74454725 0.0103548731 0.00352102111)
(1.7344159 0.00129912538 0.00333428992)
(1.727739 -0.0082235869 0.00313274671)
(1.72383991 -0.0180291535 0.00287318164)
(1.72239083 -0.0279277931 0.00256618279)
(1.7232421 -0.037713629 0.00223469964)
(1.72632715 -0.0471545157 0.00189933394)
(1.73160901 -0.0559829192 0.00157435595)
(1.7390439 -0.0638894651 0.0012681286)
(1.74855049 -0.0705210866 0.00098481783)
(1.75998042 -0.0754861865 0.000726104082)
(1.7730897 -0.0783695265 0.00049244693)
(1.78751305 -0.0787594077 0.000283997873)
(1.80274614 -0.076288556 0.000101196034)
(1.81814297 -0.0706876904 -5.49181711e-05)
(1.83293645 -0.0618465952 -0.000182717719)
(1.84628902 -0.0498719646 -0.000280441983)
(4.39513734 0.00700104948 0.341234393)
(3.8602318 0.0179171351 0.526569998)
(3.28015922 0.0257042954 0.416775219)
(2.70905075 0.0307449741 0.262623691)
(2.32386781 0.0333197296 0.146763063)
(2.09455842 0.0336484268 0.0746395933)
(1.95136348 0.0319677347 0.0355931212)
(1.86080264 0.0285208454 0.0167822163)
(1.80490666 0.0235379179 0.00849456525)
(1.76995056 0.0172341421 0.00518595847)
(1.74708141 0.00980753792 0.00402678704)
(1.73157448 0.00143705571 0.00364408382)
(1.72098162 -0.00771297216 0.00344860444)
(1.71400085 -0.0174838642 0.00323830752)
(1.70996625 -0.0277125933 0.00297006151)
(1.70856943 -0.0382212692 0.00265400577)
(1.7096904 -0.0488054104 0.00231269233)
(1.7133027 -0.0592211325 0.00196642394)
(1.71941841 -0.0691725082 0.00162912029)
(1.72804829 -0.0783008045 0.00130875302)
(1.73916483 -0.0861781562 0.00100911726)
(1.75266334 -0.0923092304 0.00073156049)
(1.76832039 -0.0961453317 0.000476331486)
(1.78575227 -0.0971158495 0.000243622669)
(1.80438036 -0.0946811261 3.43808861e-05)
(1.82341463 -0.0884079024 -0.000149131403)
(1.8418696 -0.0780623014 -0.000303187788)
(1.85862725 -0.0637058562 -0.000423233611)
(4.39502006 0.0055238416 0.341282346)
(3.85951345 0.0141203068 0.526711885)
(3.2783826 0.0201951842 0.416962849)
(2.70591892 0.0240168339 0.262800796)
(2.31931158 0.0257700336 0.146915386)
(2.08861279 0.0255936899 0.074776838)
(1.94409718 0.0236466653 0.0357247196)
(1.85231256 0.0200963379 0.016910865)
(1.7953044 0.0151014536 0.00861966594)
(1.75935192 0.00881195551 0.00530633821)
(1.73560388 0.00136773038 0.00414118147)
(1.71933701 -0.00710299906 0.00375162105)
(1.70810747 -0.016479172 0.00354929577)
(1.70062322 -0.0266385341 0.00333237688)
(1.69623599 -0.0374480706 0.00305734507)
(1.69466569 -0.0487525664 0.00273397164)
(1.69583369 -0.0603604341 0.00238453826)
(1.69976928 -0.0720272055 0.00202893077)
(1.70655433 -0.0834374985 0.00168056875)
(1.71628062 -0.0941873396 0.00134686716)
(1.72900654 -0.103769919 0.00103100825)
(1.74470679 -0.111569549 0.000733676465)
(1.76321351 -0.116870683 0.000454490335)
(1.78415117 -0.118890552 0.000193245646)
(1.80687403 -0.11684431 -4.88946493e-05)
(1.83042265 -0.110048921 -0.000268308478)
(1.85352364 -0.0980635405 -0.000458294981)
(1.87466161 -0.0808494893 -0.000609910253)
(4.39491867 0.0042620851 0.341323636)
(3.85889194 0.0108747205 0.526834024)
(3.27684165 0.0154728593 0.417124557)
(2.70319003 0.0182215415 0.262953976)
(2.31531393 0.0192235616 0.14704799)
(2.08334826 0.0185520622 0.0748972126)
(1.93759272 0.0163045347 0.0358407354)
(1.84461873 0.0125880607 0.0170245211)
(1.78648565 0.00750232655 0.00873019547)
(1.74947816 0.00114005395 0.00541252637)
(1.72474883 -0.00641320193 0.00424213054)
(1.70757944 -0.0150795259 0.00384734279)
(1.69553402 -0.0247843339 0.00364005056)
(1.68733373 -0.0354489628 0.00341815462)
(1.68235273 -0.0469808677 0.00313791878)
(1.68034657 -0.0592605578 0.00280892016)
(1.68128912 -0.0721246511 0.00245306873)
(1.68528192 -0.0853444965 0.00208975571)
(1.69250061 -0.0986008054 0.00173179278)
(1.70315156 -0.111455821 0.00138586947)
(1.71742283 -0.123326193 0.00105427298)
(1.73542145 -0.133462628 0.000736577827)
(1.75709244 -0.140945998 0.000431126375)
(1.78211997 -0.144713712 0.000136517616)
(1.80981998 -0.14363337 -0.000146604299)
(1.83904683 -0.136640476 -0.000413476471)
(1.86815184 -0.122947267 -0.000653574271)
(1.89505355 -0.102309186 -0.000850927309)
(4.39482953 0.0031892325 0.34136007)
(3.8583442 0.00811377038 0.526941345)
(3.27547902 0.0114481546 0.41726647)
(2.70076613 0.0132658926 0.263088619)
(2.31174064 0.0135999963 0.147164992)
(2.07860289 0.0124695779 0.0750039622)
(1.93166968 0.0099227587 0.0359440163)
(1.83753083 0.00601772866 0.0171257788)
(1.77825622 0.000804012878 0.00882839344)
(1.74013432 -0.0056767841 0.00550677627)
(1.71432161 -0.0133899539 0.00433256075)
(1.69610488 -0.0223077804 0.00393417412)
(1.68305532 -0.0324063735 0.00372322935)
(1.6739074 -0.0436588316 0.0034976644)
(1.66805942 -0.0560250069 0.00321371448)
(1.66530679 -0.0694373252 0.00288070273)
(1.66568434 -0.0837809296 0.00252012774)
(1.66938149 -0.0988668088 0.00215084212)
(1.67669392 -0.114397334 0.00178500608)
(1.68798264 -0.129924557 0.0014284676)
(1.70362265 -0.144803877 0.00108234363)
(1.72392897 -0.158149668 0.000744582515)
(1.74904963 -0.168805245 0.000411380832)
(1.77882116 -0.175347772 7.88830769e-05)
(1.81259182 -0.176157582 -0.000254214341)
(1.84903964 -0.169588449 -0.000583123011)
(1.88603964 -0.1542697 -0.000892888472)
(1.92070106 -0.129546963 -0.00115632038)
(4.39475012 0.00228511462 0.34139292)
(3.85785434 0.00578678725 0.527037323)
(3.27425523 0.00805294521 0.417392928)
(2.69857969 0.00907815348 0.263208576)
(2.30849889 0.00883705085 0.147269373)
(2.07426435 0.00730460027 0.0750994193)
(1.9262028 0.00448894411 0.03603643)
(1.83091623 0.000407251329 0.0172159891)
(1.77048053 -0.00493401837 0.00891573708)
(1.73118538 -0.0115385493 0.00559143843)
(1.70418806 -0.0194194433 0.00441481728)
(1.68477612 -0.0285999802 0.00401379885)
(1.67052388 -0.0391114921 0.00380017755)
(1.66017549 -0.0509872596 0.00357209496)
(1.65315045 -0.0642530269 0.00328571726)
(1.64928303 -0.0789125969 0.00295009981)
(1.64867258 -0.0949258891 0.00258633531)
(1.6516082 -0.112176895 0.00221277053)
(1.65853053 -0.13042909 0.00184093869)
(1.6699997 -0.149266541 0.00147581825)
(1.68664879 -0.168021212 0.00111722153)
(1.70910423 -0.185691415 0.000761045009)
(1.7378535 -0.200864946 0.000400381924)
(1.77304367 -0.211674718 2.72004329e-05)
(1.81420325 -0.21583309 -0.00036424644)
(1.85990791 -0.21081584 -0.000771978801)
(1.90747189 -0.194274497 -0.00117530504)
(1.95283859 -0.164749964 -0.00152856889)
(4.39467874 0.00153377921 0.341423047)
(3.85741181 0.00385371627 0.527124323)
(3.27314425 0.00523313978 0.417506889)
(2.69658629 0.00560087623 0.263316469)
(2.30552796 0.00488432051 0.147363139)
(2.07026011 0.00302361422 0.0751849537)
(1.92111161 -6.60748297e-06 0.0361185719)
(1.82469098 -0.00422366301 0.0172960655)
(1.76307646 -0.00965672449 0.00899415627)
(1.72255367 -0.0163496086 0.00566847301)
(1.69427394 -0.0243609723 0.00449012241)
(1.67351889 -0.0337655252 0.00408711955)
(1.65785851 -0.0446533491 0.0038715967)
(1.64603807 -0.0571260463 0.00364185599)
(1.63748908 -0.0712894733 0.00335397076)
(1.63207633 -0.0872409188 0.00301672983)
(1.62995885 -0.105047191 0.00265085325)
(1.63152845 -0.124709376 0.0022742486)
(1.63738843 -0.146109212 0.00189790511)
(1.64834108 -0.168931658 0.00152607447)
(1.66535912 -0.192559211 0.00115746412)
(1.68951401 -0.215937457 0.000785982992)
(1.72182958 -0.237422039 0.000401170405)
(1.76302141 -0.254637619 -1.08889465e-05)
(1.81307953 -0.264413321 -0.000464627407)
(1.87070294 -0.262923611 -0.000967182945)
(1.93262876 -0.246187524 -0.00149279436)
(1.99317403 -0.211198231 -0.00196896768)
(4.39461441 0.000921707197 0.341451039)
(3.85701031 0.00228106929 0.527203906)
(3.27213042 0.0029433469 0.417610253)
(2.69475953 0.00278516023 0.263413895)
(2.30279296 0.00169823396 0.147447336)
(2.06654919 -0.000404289564 0.0752605803)
(1.91635249 -0.0035758314 0.0361910231)
(1.81881502 -0.00786018849 0.0173677455)
(1.75601178 -0.0133157326 0.00906535962)
(1.71421612 -0.0200221757 0.0057387836)
(1.68456557 -0.0280805092 0.00455911329)
(1.66232687 -0.037615406 0.00415456999)
(1.64505431 -0.0487774435 0.00393759624)
(1.63148018 -0.0617429613 0.00370661992)
(1.62103132 -0.0767110341 0.00341758828)
(1.61358461 -0.0938951328 0.00307898423)
(1.60934081 -0.113505078 0.00271111176)
(1.60878173 -0.13571326 0.00233140173)
(1.61267491 -0.160596865 0.0019503736)
(1.62209464 -0.188045156 0.00157188134)
(1.63843269 -0.217618717 0.00119418873)
(1.6633647 -0.24834843 0.000810434649)
(1.69872132 -0.278470242 0.000408458336)
(1.74618744 -0.305114194 -2.98981373e-05)
(1.80672444 -0.324020834 -0.000527705459)
(1.87967955 -0.329482679 -0.00110951097)
(1.96141366 -0.314772315 -0.00175589349)
(2.0441367 -0.27388805 -0.00239926603)
(4.39455704 0.000436310069 0.341477602)
(3.85664745 0.00103866633 0.527277306)
(3.27120653 0.00114305016 0.417704143)
(2.69308754 0.000585834176 0.263501429)
(2.30027866 -0.000763966246 0.147521655)
(2.06311569 -0.00301332672 0.0753267383)
(1.91191489 -0.00623625645 0.0362554804)
(1.81328817 -0.0104958946 0.0174325828)
(1.74929933 -0.015874823 0.0091300772)
(1.70620174 -0.0224830619 0.00580283098)
(1.67511072 -0.0304584336 0.00462204461)
(1.65126681 -0.0399715771 0.00421611429)
(1.63219361 -0.0512320573 0.00399774901)
(1.61659076 -0.0644934083 0.00376543286)
(1.60385531 -0.0800568588 0.00347486236)
(1.59384525 -0.0982713868 0.00313401966)
(1.5867672 -0.119525357 0.00276251945)
(1.58315602 -0.144222394 0.00237699593)
(1.58391428 -0.172730042 0.00198723969)
(1.5903844 -0.20528361 0.00159675522)
(1.60442974 -0.241819977 0.00120422595)
(1.62848874 -0.281708678 0.000804638134)
(1.66553278 -0.323345032 0.000389415503)
(1.71880177 -0.363582755 -5.37126091e-05)
(1.79114327 -0.397073238 -0.000538333967)
(1.88368822 -0.415618742 -0.00108817808)
(1.99326019 -0.408047759 -0.00166170653)
(2.10986149 -0.36233285 -0.00232941614)
(4.39450763 6.69060839e-05 0.341504114)
(3.8563255 9.81554545e-05 0.527346099)
(3.27037252 -0.000208147512 0.417789097)
(2.69156844 -0.00104320537 0.263579303)
(2.29798536 -0.0025487171 0.147586815)
(2.05996668 -0.00484346674 0.0753853352)
(1.90781731 -0.00801445477 0.0363134481)
(1.80814366 -0.0121389053 0.0174911737)
(1.74299192 -0.0173173924 0.00918861736)
(1.69858876 -0.0236824491 0.00586072459)
(1.6660182 -0.0314008355 0.00467878977)
(1.6404819 -0.0406816216 0.00427134555)
(1.61945524 -0.0517867703 0.00405127039)
(1.60158099 -0.065042722 0.00381693041)
(1.58619312 -0.0808533997 0.00352348349)
(1.57308611 -0.0997130746 0.0031779474)
(1.56241466 -0.122215101 0.00279853235)
(1.5546962 -0.149049335 0.00240006051)
(1.55089083 -0.180975156 0.00199033912)
(1.55254137 -0.218746798 0.00157137924)
(1.56196195 -0.262951632 0.00114231546)
(1.58244848 -0.313698993 0.000702981453)
(1.61843933 -0.370068124 0.000256796039)
(1.67547901 -0.429233455 -0.000184251387)
(1.75972744 -0.485213952 -0.00060589249)
(1.87641981 -0.527121146 -0.00101252866)
(2.02568872 -0.537805073 -0.0012458013)
(2.19819845 -0.493720628 -0.00186448368)
(4.39446577 -0.000195737879 0.341529959)
(3.85604464 -0.000568977598 0.527409522)
(3.26963098 -0.00115380173 0.417864921)
(2.69020917 -0.00215171598 0.263648148)
(2.29592724 -0.00370739024 0.147644521)
(2.0571274 -0.00594322081 0.075437587)
(1.90409979 -0.00895186233 0.0363653594)
(1.80344163 -0.012818601 0.017543618)
(1.73717685 -0.0176541657 0.00924089786)
(1.6914996 -0.0236042021 0.00591222676)
(1.65745409 -0.030853737 0.00472895748)
(1.63019081 -0.0396382417 0.00431967649)
(1.60711889 -0.05025878 0.00409725506)
(1.58679771 -0.0631007808 0.00385964753)
(1.56845924 -0.0786580309 0.00356098046)
(1.55177795 -0.0975621128 0.00320645603)
(1.53677638 -0.120615804 0.00281143193)
(1.5238443 -0.14882629 0.00238656813)
(1.51385624 -0.18342787 0.00193417324)
(1.50838739 -0.22587091 0.00145026533)
(1.51004337 -0.277728527 0.000930495913)
(1.52291198 -0.340425533 0.000381572769)
(1.55310481 -0.414611141 -0.000159350188)
(1.60926873 -0.498996197 -0.00060858916)
(1.7028253 -0.588145635 -0.000886392665)
(1.84674372 -0.668759726 -0.000987308008)
(2.05174314 -0.716135692 -0.00102941385)
(2.32113012 -0.682442951 -0.00373393882)
(4.39442982 -0.000363643607 0.341552737)
(3.85580193 -0.000994526102 0.52746483)
(3.26898618 -0.0017398285 0.417930745)
(2.68902406 -0.00279453031 0.263708009)
(2.29412763 -0.00430015878 0.147694908)
(2.05463412 -0.00637505598 0.0754834091)
(1.90081749 -0.00910990178 0.0364109285)
(1.7992626 -0.0125910109 0.0175895632)
(1.73196828 -0.0169306527 0.00928652026)
(1.68509236 -0.0222766627 0.00595689867)
(1.64963301 -0.0288187859 0.00477206063)
(1.62067972 -0.0368020835 0.00436052784)
(1.59555996 -0.046545836 0.00413493222)
(1.57272519 -0.0584687693 0.0038924277)
(1.55126631 -0.0731237714 0.00358542084)
(1.53067609 -0.0912450329 0.00321601652)
(1.51074861 -0.113810622 0.00279432427)
(1.49159843 -0.142123407 0.00232243459)
(1.4737952 -0.177910665 0.00178929771)
(1.45863719 -0.223433873 0.00117167865)
(1.44862543 -0.28157625 0.00044202359)
(1.44823487 -0.355807442 -0.000406063551)
(1.46510281 -0.449880306 -0.00130233763)
(1.51171937 -0.566753964 -0.00202750936)
(1.60765834 -0.705715146 -0.00224644856)
(1.77950241 -0.855733929 -0.00138111333)