/*--------------------------------*- C++ -*----------------------------------*\
| =========                 |                                                 |
| \\      /  F ield         | foam-extend: Open Source CFD                    |
|  \\    /   O peration     | Version:     4.1                                |
|   \\  /    A nd           | Web:         http://www.foam-extend.org         |
|    \\/     M anipulation  |                                                 |
\*---------------------------------------------------------------------------*/
FoamFile
{
    version     2.0;
    format      ascii;
    class       volScalarField::DimensionedInternalField;
    location    "0.6";
    object      V0;
}
// * * * * * * * * * * * * * * * * * * * * * * * * * * * * * * * * * * * * * //

dimensions      [0 3 0 0 0 0 0];

value           nonuniform List<scalar> 
35840
(
1.00000017e-06
1.0000005e-06
1.00000085e-06
1.00000122e-06
1.00000164e-06
1.00000211e-06
1.00000265e-06
1.00000329e-06
1.00000403e-06
1.00000488e-06
1.00000587e-06
1.000007e-06
1.00000829e-06
1.00000975e-06
1.00001137e-06
1.00001317e-06
1.00001512e-06
1.00001722e-06
1.00001944e-06
1.00002176e-06
1.00002412e-06
1.00002649e-06
1.00002881e-06
1.00003102e-06
1.00003306e-06
1.00003487e-06
1.0000364e-06
1.00003758e-06
1.00000017e-06
1.00000051e-06
1.00000086e-06
1.00000124e-06
1.00000167e-06
1.00000215e-06
1.00000271e-06
1.00000337e-06
1.00000412e-06
1.00000501e-06
1.00000603e-06
1.0000072e-06
1.00000854e-06
1.00001006e-06
1.00001175e-06
1.00001362e-06
1.00001567e-06
1.00001787e-06
1.00002021e-06
1.00002264e-06
1.00002514e-06
1.00002765e-06
1.0000301e-06
1.00003245e-06
1.00003462e-06
1.00003655e-06
1.00003817e-06
1.00003944e-06
1.00000018e-06
1.00000054e-06
1.00000091e-06
1.00000132e-06
1.00000177e-06
1.00000229e-06
1.00000289e-06
1.00000359e-06
1.00000441e-06
1.00000537e-06
1.00000649e-06
1.00000778e-06
1.00000926e-06
1.00001093e-06
1.00001282e-06
1.00001491e-06
1.00001721e-06
1.00001969e-06
1.00002234e-06
1.00002512e-06
1.00002797e-06
1.00003084e-06
1.00003367e-06
1.00003638e-06
1.0000389e-06
1.00004113e-06
1.00004302e-06
1.0000445e-06
1.0000002e-06
1.00000059e-06
1.000001e-06
1.00000145e-06
1.00000195e-06
1.00000253e-06
1.00000321e-06
1.000004e-06
1.00000494e-06
1.00000604e-06
1.00000732e-06
1.00000882e-06
1.00001055e-06
1.00001252e-06
1.00001475e-06
1.00001724e-06
1.00001999e-06
1.00002299e-06
1.0000262e-06
1.00002958e-06
1.00003308e-06
1.00003663e-06
1.00004013e-06
1.0000435e-06
1.00004664e-06
1.00004944e-06
1.00005181e-06
1.00005367e-06
1.00000022e-06
1.00000067e-06
1.00000113e-06
1.00000164e-06
1.00000222e-06
1.00000288e-06
1.00000367e-06
1.00000459e-06
1.0000057e-06
1.000007e-06
1.00000854e-06
1.00001034e-06
1.00001244e-06
1.00001485e-06
1.00001759e-06
1.00002068e-06
1.00002412e-06
1.00002788e-06
1.00003194e-06
1.00003625e-06
1.00004073e-06
1.00004529e-06
1.00004982e-06
1.0000542e-06
1.00005829e-06
1.00006196e-06
1.00006508e-06
1.00006752e-06
1.00000025e-06
1.00000077e-06
1.0000013e-06
1.00000189e-06
1.00000256e-06
1.00000334e-06
1.00000427e-06
1.00000538e-06
1.00000671e-06
1.00000829e-06
1.00001017e-06
1.00001239e-06
1.00001498e-06
1.00001799e-06
1.00002145e-06
1.00002537e-06
1.00002975e-06
1.00003459e-06
1.00003984e-06
1.00004545e-06
1.00005132e-06
1.00005733e-06
1.00006334e-06
1.00006917e-06
1.00007464e-06
1.00007956e-06
1.00008375e-06
1.00008705e-06
1.00000029e-06
1.00000089e-06
1.00000151e-06
1.0000022e-06
1.00000299e-06
1.00000392e-06
1.00000503e-06
1.00000637e-06
1.00000798e-06
1.00000992e-06
1.00001224e-06
1.000015e-06
1.00001825e-06
1.00002205e-06
1.00002645e-06
1.00003147e-06
1.00003712e-06
1.00004341e-06
1.00005028e-06
1.00005767e-06
1.00006545e-06
1.00007347e-06
1.00008152e-06
1.00008938e-06
1.00009678e-06
1.00010346e-06
1.00010917e-06
1.00011367e-06
1.00000034e-06
1.00000103e-06
1.00000176e-06
1.00000257e-06
1.00000351e-06
1.00000461e-06
1.00000595e-06
1.00000757e-06
1.00000953e-06
1.00001192e-06
1.00001479e-06
1.00001824e-06
1.00002233e-06
1.00002715e-06
1.00003275e-06
1.00003921e-06
1.00004654e-06
1.00005474e-06
1.00006377e-06
1.00007355e-06
1.00008391e-06
1.00009465e-06
1.00010551e-06
1.00011615e-06
1.00012622e-06
1.00013535e-06
1.00014317e-06
1.00014935e-06
1.0000004e-06
1.0000012e-06
1.00000205e-06
1.000003e-06
1.00000411e-06
1.00000543e-06
1.00000703e-06
1.00000899e-06
1.00001139e-06
1.00001432e-06
1.00001788e-06
1.00002218e-06
1.00002732e-06
1.00003341e-06
1.00004057e-06
1.00004886e-06
1.00005835e-06
1.00006905e-06
1.00008093e-06
1.00009387e-06
1.00010768e-06
1.0001221e-06
1.00013675e-06
1.0001512e-06
1.00016494e-06
1.00017744e-06
1.00018819e-06
1.00019671e-06
1.00000046e-06
1.00000139e-06
1.00000239e-06
1.0000035e-06
1.0000048e-06
1.00000637e-06
1.00000829e-06
1.00001065e-06
1.00001357e-06
1.00001715e-06
1.00002154e-06
1.00002688e-06
1.00003331e-06
1.000041e-06
1.0000501e-06
1.00006072e-06
1.00007298e-06
1.00008691e-06
1.00010249e-06
1.00011959e-06
1.00013798e-06
1.00015731e-06
1.00017708e-06
1.0001967e-06
1.00021545e-06
1.00023259e-06
1.00024738e-06
1.00025913e-06
1.00000053e-06
1.0000016e-06
1.00000276e-06
1.00000405e-06
1.00000558e-06
1.00000743e-06
1.00000971e-06
1.00001255e-06
1.00001607e-06
1.00002043e-06
1.00002581e-06
1.0000324e-06
1.00004041e-06
1.00005006e-06
1.00006157e-06
1.00007512e-06
1.00009087e-06
1.00010893e-06
1.00012929e-06
1.00015182e-06
1.00017625e-06
1.00020211e-06
1.00022875e-06
1.00025536e-06
1.00028094e-06
1.00030445e-06
1.0003248e-06
1.00034101e-06
1.00000061e-06
1.00000184e-06
1.00000316e-06
1.00000465e-06
1.00000643e-06
1.00000861e-06
1.00001131e-06
1.00001467e-06
1.00001889e-06
1.00002416e-06
1.00003071e-06
1.00003879e-06
1.0000487e-06
1.00006072e-06
1.00007518e-06
1.00009235e-06
1.0001125e-06
1.00013578e-06
1.00016226e-06
1.00019182e-06
1.00022414e-06
1.00025864e-06
1.00029447e-06
1.00033049e-06
1.00036536e-06
1.00039756e-06
1.00042557e-06
1.00044795e-06
1.00000069e-06
1.00000209e-06
1.00000359e-06
1.0000053e-06
1.00000735e-06
1.00000987e-06
1.00001303e-06
1.00001701e-06
1.00002203e-06
1.00002834e-06
1.00003624e-06
1.00004607e-06
1.00005822e-06
1.00007308e-06
1.00009111e-06
1.00011271e-06
1.00013829e-06
1.00016812e-06
1.00020236e-06
1.00024094e-06
1.00028351e-06
1.00032936e-06
1.00037739e-06
1.00042606e-06
1.0004735e-06
1.00051759e-06
1.00055611e-06
1.000587e-06
1.00000077e-06
1.00000234e-06
1.00000403e-06
1.00000598e-06
1.00000831e-06
1.00001121e-06
1.00001487e-06
1.00001952e-06
1.00002542e-06
1.00003292e-06
1.00004237e-06
1.00005421e-06
1.00006896e-06
1.00008717e-06
1.00010945e-06
1.00013641e-06
1.00016861e-06
1.00020654e-06
1.00025051e-06
1.00030056e-06
1.00035633e-06
1.00041698e-06
1.00048111e-06
1.00054669e-06
1.00061111e-06
1.00067139e-06
1.00072434e-06
1.00076699e-06
1.00000085e-06
1.0000026e-06
1.00000449e-06
1.00000666e-06
1.0000093e-06
1.0000126e-06
1.0000168e-06
1.00002216e-06
1.00002902e-06
1.0000378e-06
1.00004897e-06
1.0000631e-06
1.00008085e-06
1.00010293e-06
1.00013018e-06
1.00016349e-06
1.00020367e-06
1.00025149e-06
1.00030749e-06
1.00037193e-06
1.00044452e-06
1.00052432e-06
1.00060957e-06
1.00069761e-06
1.0007849e-06
1.00086721e-06
1.00093996e-06
1.00099881e-06
1.00000094e-06
1.00000286e-06
1.00000493e-06
1.00000734e-06
1.00001029e-06
1.000014e-06
1.00001874e-06
1.00002485e-06
1.00003274e-06
1.00004289e-06
1.00005592e-06
1.00007255e-06
1.0000936e-06
1.00012009e-06
1.00015312e-06
1.00019384e-06
1.00024344e-06
1.0003031e-06
1.00037377e-06
1.00045602e-06
1.00054977e-06
1.00065407e-06
1.00076679e-06
1.00088451e-06
1.00100246e-06
1.00111469e-06
1.00121462e-06
1.00129587e-06
1.00000102e-06
1.00000309e-06
1.00000536e-06
1.00000799e-06
1.00001123e-06
1.00001534e-06
1.00002064e-06
1.00002751e-06
1.00003644e-06
1.00004804e-06
1.00006304e-06
1.00008232e-06
1.00010697e-06
1.00013832e-06
1.00017784e-06
1.00022703e-06
1.00028751e-06
1.00036108e-06
1.00044927e-06
1.00055319e-06
1.00067319e-06
1.00080842e-06
1.00095651e-06
1.00111318e-06
1.00127206e-06
1.0014249e-06
1.00156221e-06
1.00167453e-06
1.00000108e-06
1.0000033e-06
1.00000573e-06
1.00000857e-06
1.00001209e-06
1.00001658e-06
1.0000224e-06
1.00003002e-06
1.00003998e-06
1.00005302e-06
1.00007001e-06
1.00009207e-06
1.00012057e-06
1.0001571e-06
1.0002035e-06
1.0002619e-06
1.00033479e-06
1.00042446e-06
1.00053311e-06
1.00066284e-06
1.00081479e-06
1.00098853e-06
1.0011816e-06
1.00138892e-06
1.00160226e-06
1.00181026e-06
1.0019992e-06
1.00215495e-06
1.00000114e-06
1.00000347e-06
1.00000603e-06
1.00000905e-06
1.0000128e-06
1.00001762e-06
1.00002393e-06
1.00003222e-06
1.00004316e-06
1.00005757e-06
1.00007651e-06
1.0001013e-06
1.0001336e-06
1.00017536e-06
1.00022894e-06
1.00029726e-06
1.00038348e-06
1.00049087e-06
1.00062295e-06
1.00078291e-06
1.00097296e-06
1.00119369e-06
1.00144311e-06
1.00171568e-06
1.00200122e-06
1.00228435e-06
1.00254533e-06
1.00276269e-06
1.00000118e-06
1.00000359e-06
1.00000624e-06
1.00000938e-06
1.00001332e-06
1.00001841e-06
1.0000251e-06
1.00003396e-06
1.00004574e-06
1.00006136e-06
1.00008206e-06
1.00010937e-06
1.00014524e-06
1.00019207e-06
1.00025289e-06
1.00033128e-06
1.00043126e-06
1.00055754e-06
1.00071534e-06
1.00090942e-06
1.00114367e-06
1.00142042e-06
1.00173913e-06
1.0020948e-06
1.0024758e-06
1.00286209e-06
1.00322536e-06
1.0035324e-06
1.00000119e-06
1.00000364e-06
1.00000634e-06
1.00000955e-06
1.00001359e-06
1.00001885e-06
1.00002581e-06
1.00003508e-06
1.00004749e-06
1.00006407e-06
1.00008619e-06
1.00011562e-06
1.00015462e-06
1.00020606e-06
1.00027353e-06
1.00036142e-06
1.00047509e-06
1.00062074e-06
1.00080511e-06
1.00103566e-06
1.00131952e-06
1.00166134e-06
1.00206323e-06
1.00252332e-06
1.00303049e-06
1.00356031e-06
1.00407309e-06
1.00451624e-06
1.00000118e-06
1.00000361e-06
1.00000629e-06
1.0000095e-06
1.00001356e-06
1.00001887e-06
1.00002594e-06
1.00003542e-06
1.00004817e-06
1.00006533e-06
1.00008839e-06
1.00011931e-06
1.00016064e-06
1.00021568e-06
1.00028861e-06
1.00038474e-06
1.00051061e-06
1.00067414e-06
1.00088443e-06
1.00115186e-06
1.0014872e-06
1.00190077e-06
1.00240125e-06
1.00299189e-06
1.00366613e-06
1.00439982e-06
1.00514049e-06
1.00580324e-06
1.00000114e-06
1.00000349e-06
1.00000609e-06
1.00000922e-06
1.00001319e-06
1.00001842e-06
1.00002541e-06
1.00003483e-06
1.00004758e-06
1.00006484e-06
1.0000882e-06
1.00011974e-06
1.00016224e-06
1.00021934e-06
1.00029577e-06
1.00039761e-06
1.00053262e-06
1.00071047e-06
1.00094299e-06
1.001244e-06
1.00162953e-06
1.0021186e-06
1.00273099e-06
1.00348198e-06
1.00437858e-06
1.00540915e-06
1.00651577e-06
1.00756121e-06
1.00000107e-06
1.00000328e-06
1.00000573e-06
1.00000868e-06
1.00001246e-06
1.00001744e-06
1.00002414e-06
1.00003321e-06
1.00004555e-06
1.00006234e-06
1.0000852e-06
1.00011628e-06
1.00015847e-06
1.00021561e-06
1.00029279e-06
1.00039671e-06
1.00053613e-06
1.00072234e-06
1.0009698e-06
1.00129672e-06
1.00172655e-06
1.0022886e-06
1.00301836e-06
1.003959e-06
1.00515352e-06
1.00662897e-06
1.00835352e-06
1.01011974e-06
1.00000097e-06
1.00000297e-06
1.0000052e-06
1.00000789e-06
1.00001135e-06
1.00001593e-06
1.0000221e-06
1.0000305e-06
1.00004198e-06
1.00005768e-06
1.00007916e-06
1.00010852e-06
1.00014864e-06
1.00020337e-06
1.0002779e-06
1.00037921e-06
1.00051661e-06
1.0007026e-06
1.0009539e-06
1.00129308e-06
1.00175109e-06
1.00237086e-06
1.00321245e-06
1.00436307e-06
1.00594741e-06
1.00810296e-06
1.01090649e-06
1.01409648e-06
1.00000084e-06
1.00000257e-06
1.00000451e-06
1.00000685e-06
1.00000987e-06
1.00001388e-06
1.00001931e-06
1.00002672e-06
1.00003688e-06
1.00005083e-06
1.00007e-06
1.00009633e-06
1.00013249e-06
1.00018212e-06
1.00025016e-06
1.00034338e-06
1.00047102e-06
1.00064582e-06
1.00088556e-06
1.00121565e-06
1.00167368e-06
1.00231756e-06
1.00324042e-06
1.00459592e-06
1.00664261e-06
1.00979653e-06
1.01447444e-06
1.0203925e-06
1.00000068e-06
1.00000209e-06
1.00000367e-06
1.00000559e-06
1.00000806e-06
1.00001135e-06
1.00001582e-06
1.00002194e-06
1.00003035e-06
1.00004193e-06
1.0000579e-06
1.00007991e-06
1.00011027e-06
1.00015211e-06
1.00020977e-06
1.00028924e-06
1.00039883e-06
1.00055025e-06
1.00076039e-06
1.00105449e-06
1.0014725e-06
1.00208213e-06
1.00300665e-06
1.00448237e-06
1.00696377e-06
1.01129131e-06
1.01897786e-06
1.02897293e-06
1.0000005e-06
1.00000155e-06
1.00000271e-06
1.00000413e-06
1.00000597e-06
1.00000842e-06
1.00001175e-06
1.00001632e-06
1.0000226e-06
1.00003129e-06
1.00004328e-06
1.00005986e-06
1.00008278e-06
1.00011447e-06
1.00015829e-06
1.0002189e-06
1.00030285e-06
1.00041947e-06
1.00058242e-06
1.00081271e-06
1.00114489e-06
1.00164119e-06
1.00242489e-06
1.00376086e-06
1.00623567e-06
1.0110162e-06
1.01924278e-06
1.04311028e-06
1.00000048e-06
1.00000145e-06
1.00000245e-06
1.00000354e-06
1.00000475e-06
1.00000612e-06
1.0000077e-06
1.00000954e-06
1.00001168e-06
1.00001417e-06
1.00001703e-06
1.00002032e-06
1.00002407e-06
1.0000283e-06
1.00003301e-06
1.00003821e-06
1.00004388e-06
1.00004997e-06
1.00005642e-06
1.00006314e-06
1.00007e-06
1.00007688e-06
1.00008362e-06
1.00009003e-06
1.00009595e-06
1.00010121e-06
1.00010562e-06
1.00010907e-06
1.00000049e-06
1.00000148e-06
1.0000025e-06
1.00000361e-06
1.00000485e-06
1.00000625e-06
1.00000788e-06
1.00000977e-06
1.00001197e-06
1.00001453e-06
1.0000175e-06
1.00002091e-06
1.00002479e-06
1.00002919e-06
1.0000341e-06
1.00003954e-06
1.00004547e-06
1.00005186e-06
1.00005864e-06
1.00006572e-06
1.00007296e-06
1.00008024e-06
1.00008737e-06
1.00009418e-06
1.00010047e-06
1.00010606e-06
1.00011077e-06
1.00011445e-06
1.00000052e-06
1.00000156e-06
1.00000265e-06
1.00000383e-06
1.00000514e-06
1.00000664e-06
1.00000839e-06
1.00001042e-06
1.00001281e-06
1.00001559e-06
1.00001883e-06
1.00002257e-06
1.00002686e-06
1.00003173e-06
1.0000372e-06
1.00004328e-06
1.00004994e-06
1.00005715e-06
1.00006484e-06
1.00007289e-06
1.00008117e-06
1.00008951e-06
1.00009772e-06
1.00010559e-06
1.00011288e-06
1.00011937e-06
1.00012486e-06
1.00012915e-06
1.00000057e-06
1.00000172e-06
1.00000291e-06
1.00000421e-06
1.00000567e-06
1.00000734e-06
1.0000093e-06
1.00001161e-06
1.00001432e-06
1.00001752e-06
1.00002125e-06
1.00002559e-06
1.0000306e-06
1.00003633e-06
1.0000428e-06
1.00005004e-06
1.00005803e-06
1.00006672e-06
1.00007604e-06
1.00008586e-06
1.00009601e-06
1.00010629e-06
1.00011646e-06
1.00012624e-06
1.00013534e-06
1.00014347e-06
1.00015036e-06
1.00015575e-06
1.00000064e-06
1.00000194e-06
1.00000329e-06
1.00000476e-06
1.00000643e-06
1.00000836e-06
1.00001064e-06
1.00001333e-06
1.00001653e-06
1.00002032e-06
1.00002479e-06
1.00003002e-06
1.0000361e-06
1.00004309e-06
1.00005106e-06
1.00006003e-06
1.00007e-06
1.00008092e-06
1.0000927e-06
1.0001052e-06
1.0001182e-06
1.00013144e-06
1.00014459e-06
1.0001573e-06
1.00016918e-06
1.00017982e-06
1.00018886e-06
1.00019596e-06
1.00000073e-06
1.00000222e-06
1.00000378e-06
1.00000549e-06
1.00000743e-06
1.0000097e-06
1.0000124e-06
1.00001561e-06
1.00001946e-06
1.00002405e-06
1.00002951e-06
1.00003595e-06
1.00004348e-06
1.00005222e-06
1.00006225e-06
1.00007362e-06
1.00008634e-06
1.00010038e-06
1.00011563e-06
1.0001319e-06
1.00014894e-06
1.00016638e-06
1.00018382e-06
1.00020074e-06
1.00021661e-06
1.0002309e-06
1.00024306e-06
1.00025263e-06
1.00000085e-06
1.00000258e-06
1.00000439e-06
1.00000639e-06
1.00000868e-06
1.00001137e-06
1.0000146e-06
1.00001848e-06
1.00002316e-06
1.00002878e-06
1.00003552e-06
1.00004353e-06
1.00005297e-06
1.000064e-06
1.00007675e-06
1.00009132e-06
1.00010773e-06
1.00012598e-06
1.00014593e-06
1.00016737e-06
1.00018995e-06
1.00021322e-06
1.00023659e-06
1.00025938e-06
1.00028087e-06
1.00030026e-06
1.00031683e-06
1.00032989e-06
1.00000099e-06
1.000003e-06
1.00000512e-06
1.00000746e-06
1.00001017e-06
1.00001339e-06
1.00001726e-06
1.00002196e-06
1.00002767e-06
1.00003459e-06
1.00004294e-06
1.00005293e-06
1.00006481e-06
1.00007878e-06
1.00009506e-06
1.00011379e-06
1.00013505e-06
1.00015886e-06
1.00018508e-06
1.00021344e-06
1.00024352e-06
1.00027469e-06
1.00030619e-06
1.00033707e-06
1.00036631e-06
1.0003928e-06
1.0004155e-06
1.00043344e-06
1.00000115e-06
1.00000349e-06
1.00000596e-06
1.00000872e-06
1.00001192e-06
1.00001576e-06
1.00002041e-06
1.0000261e-06
1.00003306e-06
1.00004156e-06
1.00005189e-06
1.00006436e-06
1.00007928e-06
1.00009697e-06
1.00011773e-06
1.0001418e-06
1.00016934e-06
1.0002004e-06
1.00023486e-06
1.00027241e-06
1.0003125e-06
1.00035434e-06
1.00039685e-06
1.00043878e-06
1.00047866e-06
1.00051495e-06
1.00054613e-06
1.00057085e-06
1.00000133e-06
1.00000404e-06
1.00000692e-06
1.00001015e-06
1.00001393e-06
1.00001848e-06
1.00002405e-06
1.00003091e-06
1.00003937e-06
1.00004977e-06
1.00006251e-06
1.000078e-06
1.00009668e-06
1.000119e-06
1.00014539e-06
1.00017623e-06
1.0002118e-06
1.00025222e-06
1.00029743e-06
1.00034705e-06
1.00040043e-06
1.00045652e-06
1.0005139e-06
1.00057082e-06
1.00062524e-06
1.00067499e-06
1.0007179e-06
1.00075199e-06
1.00000153e-06
1.00000466e-06
1.000008e-06
1.00001176e-06
1.00001619e-06
1.00002157e-06
1.00002819e-06
1.00003641e-06
1.00004663e-06
1.00005929e-06
1.0000749e-06
1.00009403e-06
1.00011728e-06
1.00014529e-06
1.00017867e-06
1.00021799e-06
1.00026372e-06
1.00031613e-06
1.00037521e-06
1.00044059e-06
1.00051148e-06
1.00058652e-06
1.00066385e-06
1.00074105e-06
1.00081529e-06
1.00088349e-06
1.00094254e-06
1.00098959e-06
1.00000176e-06
1.00000534e-06
1.00000916e-06
1.0000135e-06
1.00001866e-06
1.00002498e-06
1.00003281e-06
1.00004259e-06
1.00005483e-06
1.00007012e-06
1.00008912e-06
1.00011259e-06
1.00014133e-06
1.00017623e-06
1.00021818e-06
1.00026802e-06
1.00032647e-06
1.00039404e-06
1.00047088e-06
1.00055667e-06
1.00065046e-06
1.00075057e-06
1.00085453e-06
1.00095906e-06
1.00106023e-06
1.00115367e-06
1.00123492e-06
1.00129986e-06
1.000002e-06
1.00000606e-06
1.00001041e-06
1.00001537e-06
1.00002133e-06
1.00002865e-06
1.00003781e-06
1.00004937e-06
1.00006394e-06
1.00008225e-06
1.00010518e-06
1.00013371e-06
1.00016895e-06
1.0002121e-06
1.00026441e-06
1.00032711e-06
1.00040132e-06
1.00048788e-06
1.00058724e-06
1.00069921e-06
1.00082274e-06
1.00095579e-06
1.00109512e-06
1.00123634e-06
1.00137398e-06
1.00150186e-06
1.00161359e-06
1.00170321e-06
1.00000223e-06
1.00000679e-06
1.00001171e-06
1.00001734e-06
1.00002412e-06
1.00003252e-06
1.00004315e-06
1.00005665e-06
1.00007378e-06
1.00009553e-06
1.00012297e-06
1.00015734e-06
1.00020013e-06
1.00025298e-06
1.00031763e-06
1.00039586e-06
1.00048931e-06
1.00059938e-06
1.00072698e-06
1.00087219e-06
1.00103401e-06
1.00121e-06
1.00139604e-06
1.00158626e-06
1.00177312e-06
1.00194793e-06
1.00210148e-06
1.0022251e-06
1.00000248e-06
1.00000755e-06
1.00001302e-06
1.00001933e-06
1.00002698e-06
1.00003656e-06
1.00004874e-06
1.0000643e-06
1.00008423e-06
1.00010971e-06
1.00014211e-06
1.00018313e-06
1.00023463e-06
1.0002987e-06
1.00037781e-06
1.00047446e-06
1.00059106e-06
1.0007298e-06
1.00089232e-06
1.00107928e-06
1.00128987e-06
1.00152136e-06
1.00176862e-06
1.00202392e-06
1.00227699e-06
1.00251556e-06
1.0027264e-06
1.00289689e-06
1.00000272e-06
1.00000829e-06
1.00001432e-06
1.00002131e-06
1.00002986e-06
1.00004062e-06
1.00005438e-06
1.00007212e-06
1.00009502e-06
1.00012448e-06
1.0001623e-06
1.00021055e-06
1.00027163e-06
1.0003485e-06
1.00044435e-06
1.00056252e-06
1.00070646e-06
1.00087956e-06
1.00108461e-06
1.00132321e-06
1.00159516e-06
1.00189761e-06
1.00222442e-06
1.00256563e-06
1.00290733e-06
1.00323234e-06
1.00352164e-06
1.00375672e-06
1.00000295e-06
1.00000898e-06
1.00001554e-06
1.00002319e-06
1.0000326e-06
1.00004453e-06
1.0000599e-06
1.00007984e-06
1.00010576e-06
1.00013941e-06
1.00018294e-06
1.00023889e-06
1.00031042e-06
1.00040141e-06
1.00051611e-06
1.00065883e-06
1.00083433e-06
1.00104777e-06
1.00130361e-06
1.00160502e-06
1.00195298e-06
1.002345e-06
1.00277408e-06
1.00322775e-06
1.00368754e-06
1.00412949e-06
1.00452623e-06
1.00485049e-06
1.00000314e-06
1.00000959e-06
1.00001663e-06
1.00002487e-06
1.00003508e-06
1.00004811e-06
1.00006501e-06
1.00008711e-06
1.00011604e-06
1.00015387e-06
1.00020317e-06
1.0002672e-06
1.0003499e-06
1.00045592e-06
1.00059055e-06
1.00076001e-06
1.00097148e-06
1.00123161e-06
1.00154673e-06
1.00192289e-06
1.00236331e-06
1.00286656e-06
1.0034254e-06
1.00402491e-06
1.0046411e-06
1.00524101e-06
1.00578517e-06
1.0062331e-06
1.0000033e-06
1.00001008e-06
1.00001751e-06
1.00002626e-06
1.00003715e-06
1.00005115e-06
1.00006943e-06
1.0000935e-06
1.00012524e-06
1.00016707e-06
1.00022203e-06
1.00029398e-06
1.0003877e-06
1.0005089e-06
1.00066436e-06
1.00086258e-06
1.00111271e-06
1.00142417e-06
1.00180715e-06
1.00227074e-06
1.00282115e-06
1.00345983e-06
1.00418063e-06
1.00496701e-06
1.00578907e-06
1.00660221e-06
1.00734969e-06
1.00797062e-06
1.00000341e-06
1.00001042e-06
1.00001812e-06
1.00002723e-06
1.00003865e-06
1.00005342e-06
1.00007284e-06
1.00009857e-06
1.00013273e-06
1.00017808e-06
1.00023813e-06
1.00031739e-06
1.00042148e-06
1.00055738e-06
1.00073384e-06
1.00096126e-06
1.00125125e-06
1.00161741e-06
1.00207472e-06
1.0026368e-06
1.00331448e-06
1.00411392e-06
1.00503262e-06
1.00605498e-06
1.00714614e-06
1.00824756e-06
1.00927822e-06
1.01014513e-06
1.00000345e-06
1.00001056e-06
1.00001839e-06
1.0000277e-06
1.00003943e-06
1.0000547e-06
1.00007489e-06
1.00010182e-06
1.00013781e-06
1.00018592e-06
1.00025012e-06
1.00033552e-06
1.00044869e-06
1.00059795e-06
1.0007937e-06
1.00104865e-06
1.00137825e-06
1.00180041e-06
1.00233439e-06
1.00300139e-06
1.00382128e-06
1.00480616e-06
1.00596011e-06
1.00727489e-06
1.00871511e-06
1.01020788e-06
1.01163965e-06
1.01286588e-06
1.00000342e-06
1.00001047e-06
1.00001826e-06
1.00002757e-06
1.00003935e-06
1.00005477e-06
1.00007528e-06
1.00010279e-06
1.0001398e-06
1.0001896e-06
1.00025652e-06
1.00034625e-06
1.00046617e-06
1.00062584e-06
1.00083741e-06
1.00111619e-06
1.00148107e-06
1.0019548e-06
1.00256333e-06
1.00333591e-06
1.00430217e-06
1.00548927e-06
1.0069178e-06
1.00859038e-06
1.01047935e-06
1.01250675e-06
1.01452059e-06
1.01629312e-06
1.00000331e-06
1.00001013e-06
1.00001768e-06
1.00002675e-06
1.00003829e-06
1.00005345e-06
1.00007374e-06
1.00010109e-06
1.00013809e-06
1.00018818e-06
1.00025595e-06
1.00034748e-06
1.00047081e-06
1.00063646e-06
1.00085813e-06
1.00115342e-06
1.00154463e-06
1.00205947e-06
1.00273151e-06
1.00359932e-06
1.00470649e-06
1.00610266e-06
1.00783537e-06
1.00993295e-06
1.01239256e-06
1.01515387e-06
1.01803628e-06
1.02068146e-06
1.00000311e-06
1.00000951e-06
1.00001663e-06
1.0000252e-06
1.00003615e-06
1.00005062e-06
1.00007005e-06
1.00009638e-06
1.00013219e-06
1.00018093e-06
1.00024726e-06
1.00033745e-06
1.00045984e-06
1.00062559e-06
1.00084941e-06
1.00115065e-06
1.00155442e-06
1.00209298e-06
1.00280708e-06
1.00374708e-06
1.00497588e-06
1.00656823e-06
1.00860718e-06
1.01118158e-06
1.01435644e-06
1.01812749e-06
1.02233078e-06
1.02643274e-06
1.00000281e-06
1.00000862e-06
1.00001509e-06
1.00002291e-06
1.00003293e-06
1.00004622e-06
1.00006414e-06
1.00008853e-06
1.00012183e-06
1.00016739e-06
1.00022971e-06
1.00031492e-06
1.00043132e-06
1.00059006e-06
1.00080615e-06
1.00109969e-06
1.0014974e-06
1.00203474e-06
1.00275853e-06
1.00373048e-06
1.00503214e-06
1.00677015e-06
1.00908125e-06
1.01214172e-06
1.01616549e-06
1.0213099e-06
1.02751011e-06
1.03405484e-06
1.00000244e-06
1.00000747e-06
1.00001309e-06
1.00001989e-06
1.00002865e-06
1.00004029e-06
1.00005604e-06
1.00007755e-06
1.00010702e-06
1.00014751e-06
1.00020312e-06
1.00027953e-06
1.00038444e-06
1.00052837e-06
1.00072561e-06
1.00099561e-06
1.0013648e-06
1.0018692e-06
1.00255819e-06
1.00350035e-06
1.00479267e-06
1.00657525e-06
1.00905341e-06
1.01252557e-06
1.01741734e-06
1.02427302e-06
1.03332587e-06
1.04358987e-06
1.00000198e-06
1.00000608e-06
1.00001066e-06
1.00001622e-06
1.00002339e-06
1.00003295e-06
1.00004592e-06
1.00006367e-06
1.00008807e-06
1.00012168e-06
1.00016802e-06
1.00023189e-06
1.00031995e-06
1.00044128e-06
1.0006084e-06
1.0008385e-06
1.00115527e-06
1.00159167e-06
1.00219419e-06
1.00303003e-06
1.00420009e-06
1.00586329e-06
1.0082816e-06
1.01189528e-06
1.01740709e-06
1.02580449e-06
1.03828014e-06
1.0522369e-06
1.00000146e-06
1.00000449e-06
1.00000788e-06
1.000012e-06
1.00001732e-06
1.00002443e-06
1.0000341e-06
1.00004735e-06
1.0000656e-06
1.00009079e-06
1.00012559e-06
1.0001737e-06
1.00024019e-06
1.00033207e-06
1.00045904e-06
1.00063449e-06
1.00087702e-06
1.00121275e-06
1.00167902e-06
1.00233097e-06
1.00325406e-06
1.00458971e-06
1.00658923e-06
1.00972278e-06
1.01485771e-06
1.02326904e-06
1.03501415e-06
1.06589223e-06
1.00000075e-06
1.00000225e-06
1.00000382e-06
1.00000551e-06
1.00000739e-06
1.00000953e-06
1.000012e-06
1.00001487e-06
1.0000182e-06
1.00002206e-06
1.00002653e-06
1.00003166e-06
1.00003749e-06
1.00004407e-06
1.00005142e-06
1.00005952e-06
1.00006835e-06
1.00007784e-06
1.00008788e-06
1.00009834e-06
1.00010903e-06
1.00011975e-06
1.00013023e-06
1.00014023e-06
1.00014945e-06
1.00015763e-06
1.00016452e-06
1.00016988e-06
1.00000076e-06
1.0000023e-06
1.0000039e-06
1.00000563e-06
1.00000755e-06
1.00000974e-06
1.00001227e-06
1.00001521e-06
1.00001865e-06
1.00002263e-06
1.00002725e-06
1.00003256e-06
1.00003862e-06
1.00004546e-06
1.00005312e-06
1.00006158e-06
1.00007082e-06
1.00008078e-06
1.00009134e-06
1.00010235e-06
1.00011364e-06
1.00012497e-06
1.00013608e-06
1.00014668e-06
1.00015649e-06
1.00016519e-06
1.00017253e-06
1.00017826e-06
1.00000081e-06
1.00000243e-06
1.00000413e-06
1.00000596e-06
1.000008e-06
1.00001034e-06
1.00001306e-06
1.00001623e-06
1.00001995e-06
1.00002429e-06
1.00002933e-06
1.00003516e-06
1.00004184e-06
1.00004942e-06
1.00005794e-06
1.00006741e-06
1.00007779e-06
1.00008902e-06
1.00010099e-06
1.00011353e-06
1.00012642e-06
1.00013942e-06
1.00015221e-06
1.00016446e-06
1.00017581e-06
1.00018593e-06
1.00019447e-06
1.00020115e-06
1.00000088e-06
1.00000267e-06
1.00000454e-06
1.00000656e-06
1.00000883e-06
1.00001144e-06
1.00001449e-06
1.00001808e-06
1.00002231e-06
1.00002728e-06
1.0000331e-06
1.00003986e-06
1.00004767e-06
1.00005658e-06
1.00006667e-06
1.00007794e-06
1.00009038e-06
1.00010392e-06
1.00011843e-06
1.00013372e-06
1.00014954e-06
1.00016556e-06
1.00018139e-06
1.00019663e-06
1.0002108e-06
1.00022346e-06
1.00023419e-06
1.00024259e-06
1.000001e-06
1.00000301e-06
1.00000512e-06
1.00000742e-06
1.00001001e-06
1.00001303e-06
1.00001657e-06
1.00002077e-06
1.00002575e-06
1.00003165e-06
1.00003861e-06
1.00004675e-06
1.00005622e-06
1.00006712e-06
1.00007953e-06
1.0000935e-06
1.00010902e-06
1.00012603e-06
1.00014439e-06
1.00016385e-06
1.0001841e-06
1.00020472e-06
1.00022521e-06
1.000245e-06
1.0002635e-06
1.00028008e-06
1.00029416e-06
1.00030522e-06
1.00000114e-06
1.00000346e-06
1.00000589e-06
1.00000855e-06
1.00001157e-06
1.00001511e-06
1.00001931e-06
1.00002432e-06
1.00003031e-06
1.00003746e-06
1.00004596e-06
1.00005599e-06
1.00006773e-06
1.00008134e-06
1.00009695e-06
1.00011466e-06
1.00013448e-06
1.00015634e-06
1.00018009e-06
1.00020544e-06
1.00023198e-06
1.00025915e-06
1.0002863e-06
1.00031266e-06
1.00033738e-06
1.00035963e-06
1.00037857e-06
1.00039347e-06
1.00000133e-06
1.00000401e-06
1.00000684e-06
1.00000995e-06
1.00001351e-06
1.00001771e-06
1.00002274e-06
1.00002878e-06
1.00003607e-06
1.00004483e-06
1.00005532e-06
1.0000678e-06
1.0000825e-06
1.00009969e-06
1.00011955e-06
1.00014223e-06
1.0001678e-06
1.00019622e-06
1.00022729e-06
1.00026068e-06
1.00029586e-06
1.00033209e-06
1.00036849e-06
1.000404e-06
1.00043746e-06
1.00046767e-06
1.00049346e-06
1.00051381e-06
1.00000154e-06
1.00000467e-06
1.00000797e-06
1.00001162e-06
1.00001584e-06
1.00002085e-06
1.00002689e-06
1.00003421e-06
1.0000431e-06
1.00005388e-06
1.00006687e-06
1.00008244e-06
1.00010094e-06
1.00012271e-06
1.00014806e-06
1.00017723e-06
1.00021035e-06
1.00024743e-06
1.00028827e-06
1.00033244e-06
1.00037928e-06
1.00042784e-06
1.0004769e-06
1.000525e-06
1.00057053e-06
1.0006118e-06
1.00064714e-06
1.00067508e-06
1.00000179e-06
1.00000543e-06
1.00000929e-06
1.00001358e-06
1.00001857e-06
1.00002454e-06
1.00003179e-06
1.00004065e-06
1.00005149e-06
1.00006473e-06
1.00008082e-06
1.00010024e-06
1.00012348e-06
1.00015104e-06
1.00018337e-06
1.00022086e-06
1.00026376e-06
1.00031213e-06
1.00036581e-06
1.00042429e-06
1.00048673e-06
1.00055188e-06
1.00061811e-06
1.0006834e-06
1.00074551e-06
1.00080203e-06
1.0008506e-06
1.00088908e-06
1.00000208e-06
1.0000063e-06
1.00001078e-06
1.00001581e-06
1.0000217e-06
1.00002879e-06
1.00003746e-06
1.00004815e-06
1.00006132e-06
1.00007752e-06
1.00009736e-06
1.00012148e-06
1.00015058e-06
1.00018534e-06
1.00022645e-06
1.00027448e-06
1.00032988e-06
1.00039284e-06
1.00046325e-06
1.00054054e-06
1.00062368e-06
1.00071103e-06
1.00080039e-06
1.00088904e-06
1.0009738e-06
1.00105127e-06
1.00111809e-06
1.00117118e-06
1.00000238e-06
1.00000725e-06
1.00001246e-06
1.00001831e-06
1.00002521e-06
1.00003359e-06
1.00004391e-06
1.00005671e-06
1.00007262e-06
1.00009234e-06
1.00011666e-06
1.00014646e-06
1.00018267e-06
1.00022629e-06
1.00027828e-06
1.00033953e-06
1.00041076e-06
1.00049237e-06
1.00058439e-06
1.00068622e-06
1.00079662e-06
1.00091349e-06
1.00103391e-06
1.00115414e-06
1.00126975e-06
1.00137595e-06
1.0014679e-06
1.00154116e-06
1.00000274e-06
1.00000831e-06
1.00001427e-06
1.00002102e-06
1.00002907e-06
1.00003891e-06
1.00005111e-06
1.00006633e-06
1.0000854e-06
1.00010922e-06
1.00013882e-06
1.00017536e-06
1.00022012e-06
1.00027448e-06
1.00033982e-06
1.00041744e-06
1.00050848e-06
1.00061372e-06
1.00073339e-06
1.000867e-06
1.00101306e-06
1.00116896e-06
1.00133085e-06
1.00149362e-06
1.00165115e-06
1.00179662e-06
1.00192311e-06
1.0020242e-06
1.00000311e-06
1.00000944e-06
1.00001621e-06
1.00002395e-06
1.00003322e-06
1.00004463e-06
1.00005889e-06
1.00007689e-06
1.00009959e-06
1.00012812e-06
1.00016382e-06
1.00020826e-06
1.00026314e-06
1.00033035e-06
1.00041182e-06
1.00050947e-06
1.00062505e-06
1.00075987e-06
1.00091461e-06
1.00108897e-06
1.00128135e-06
1.00148851e-06
1.00170546e-06
1.0019253e-06
1.00213956e-06
1.00233861e-06
1.0025125e-06
1.00265196e-06
1.00000348e-06
1.00001058e-06
1.00001823e-06
1.00002701e-06
1.00003756e-06
1.00005066e-06
1.00006721e-06
1.00008823e-06
1.00011492e-06
1.00014879e-06
1.00019153e-06
1.00024506e-06
1.00031171e-06
1.00039402e-06
1.00049472e-06
1.00061655e-06
1.00076209e-06
1.00093351e-06
1.00113221e-06
1.00135833e-06
1.0016103e-06
1.00188429e-06
1.00217388e-06
1.00246992e-06