/*--------------------------------*- C++ -*----------------------------------*\
| =========                 |                                                 |
| \\      /  F ield         | foam-extend: Open Source CFD                    |
|  \\    /   O peration     | Version:     4.1                                |
|   \\  /    A nd           | Web:         http://www.foam-extend.org         |
|    \\/     M anipulation  |                                                 |
\*---------------------------------------------------------------------------*/
FoamFile
{
    version     2.0;
    format      ascii;
    class       regIOobject;
    location    "0.55/uniform";
    object      profilingInfo;
}
// * * * * * * * * * * * * * * * * * * * * * * * * * * * * * * * * * * * * * //

profilingInfo
(

    {
        id              15;
        parentId        14;
        description     "Foam::Time::writeObject - outputTime";
        calls           11;
        totalTime       5.318852;
        childTime       0;
        onStack         1;
    }

    {
        id              14;
        parentId        1;
        description     "Foam::Time::writeObject";
        calls           11;
        totalTime       5.318945;
        childTime       5.318852;
        onStack         1;
    }

    {
        id              1;
        description     "application::main";
        calls           1;
        totalTime       43.119893;
        childTime       24.087818;
        onStack         1;
    }

    {
        id              13;
        parentId        1;
        description     "FO::forces::execute";
        calls           54;
        totalTime       0.147171;
        childTime       0;
        onStack         0;
    }

    {
        id              2;
        parentId        1;
        description     "functionObjectList::read";
        calls           1;
        totalTime       0.009657;
        childTime       0;
        onStack         0;
    }

    {
        id              7;
        parentId        1;
        description     "fvMatrix::solve_U";
        calls           110;
        totalTime       2.003065;
        childTime       1.892128;
        onStack         0;
    }

    {
        id              3;
        parentId        1;
        description     "fvMatrix::solve_cellMotionU";
        calls           110;
        totalTime       0.977431;
        childTime       0.874915;
        onStack         0;
    }

    {
        id              11;
        parentId        1;
        description     "fvMatrix::solve_p";
        calls           660;
        totalTime       15.631549;
        childTime       15.502063;
        onStack         0;
    }

    {
        id              8;
        parentId        7;
        description     "lduMatrix::solver_Ux";
        calls           110;
        totalTime       0.581497;
        childTime       0;
        onStack         0;
    }

    {
        id              9;
        parentId        7;
        description     "lduMatrix::solver_Uy";
        calls           110;
        totalTime       0.654914;
        childTime       0;
        onStack         0;
    }

    {
        id              10;
        parentId        7;
        description     "lduMatrix::solver_Uz";
        calls           110;
        totalTime       0.655717;
        childTime       0;
        onStack         0;
    }

    {
        id              4;
        parentId        3;
        description     "lduMatrix::solver_cellMotionUx";
        calls           110;
        totalTime       0.187899;
        childTime       0;
        onStack         0;
    }

    {
        id              5;
        parentId        3;
        description     "lduMatrix::solver_cellMotionUy";
        calls           110;
        totalTime       0.504532;
        childTime       0;
        onStack         0;
    }

    {
        id              6;
        parentId        3;
        description     "lduMatrix::solver_cellMotionUz";
        calls           110;
        totalTime       0.182484;
        childTime       0;
        onStack         0;
    }

    {
        id              12;
        parentId        11;
        description     "lduMatrix::solver_p";
        calls           660;
        totalTime       15.502063;
        childTime       0;
        onStack         0;
    }
);


// ************************************************************************* //
