/*--------------------------------*- C++ -*----------------------------------*\
| =========                 |                                                 |
| \\      /  F ield         | foam-extend: Open Source CFD                    |
|  \\    /   O peration     | Version:     4.1                                |
|   \\  /    A nd           | Web:         http://www.foam-extend.org         |
|    \\/     M anipulation  |                                                 |
\*---------------------------------------------------------------------------*/
FoamFile
{
    version     2.0;
    format      ascii;
    class       volVectorField;
    location    "0.1";
    object      cellMotionU;
}
// * * * * * * * * * * * * * * * * * * * * * * * * * * * * * * * * * * * * * //

dimensions      [0 1 -1 0 0 0 0];

internalField   nonuniform List<vector> 
35840
(
(-1.28811392e-21 1.45648185e-09 -2.44946365e-22)
(-3.8801905e-21 4.38735502e-09 -7.37852015e-22)
(-6.56424031e-21 7.42217209e-09 -1.24824474e-21)
(-9.45988541e-21 1.06961191e-08 -1.7988701e-21)
(-1.2684834e-20 1.43422278e-08 -2.41210856e-21)
(-1.63566495e-20 1.84933669e-08 -3.11031155e-21)
(-2.05938276e-20 2.32834569e-08 -3.91600568e-21)
(-2.5515985e-20 2.88476835e-08 -4.85192796e-21)
(-3.12430035e-20 3.53215298e-08 -5.94086234e-21)
(-3.78929931e-20 4.28384748e-08 -7.20525144e-21)
(-4.557896e-20 5.15262288e-08 -8.66656231e-21)
(-5.44041154e-20 6.15014313e-08 -1.03443934e-20)
(-6.44558268e-20 7.28628169e-08 -1.22553243e-20)
(-7.57983264e-20 8.56829736e-08 -1.44115291e-20)
(-8.84644209e-20 9.9998975e-08 -1.68192009e-20)
(-1.02446621e-19 1.15802355e-07 -1.94768672e-20)
(-1.1768829e-19 1.330291e-07 -2.23737098e-20)
(-1.34075583e-19 1.51550549e-07 -2.54880376e-20)
(-1.51431125e-19 1.71166234e-07 -2.878609e-20)
(-1.69510421e-19 1.91599835e-07 -3.2221362e-20)
(-1.88002017e-19 2.12499352e-07 -3.57346418e-20)
(-2.06532247e-19 2.33442478e-07 -3.92549218e-20)
(-2.24675131e-19 2.53947777e-07 -4.27012834e-20)
(-2.41967508e-19 2.73491798e-07 -4.59857779e-20)
(-2.5792898e-19 2.91531598e-07 -4.90172124e-20)
(-2.72085583e-19 3.07531514e-07 -5.17056446e-20)
(-2.8399565e-19 3.20992377e-07 -5.39672838e-20)
(-2.93275946e-19 3.31481054e-07 -5.57294438e-20)
(-3.88078363e-21 4.38802717e-09 -7.37964794e-22)
(-1.16873308e-20 1.32149005e-08 -2.22244505e-21)
(-1.97675711e-20 2.23510785e-08 -3.75896266e-21)
(-2.84845024e-20 3.22067934e-08 -5.41653929e-21)
(-3.81948037e-20 4.31851595e-08 -7.26299148e-21)
(-4.9254612e-20 5.56886789e-08 -9.36602782e-21)
(-6.20230004e-20 7.01231665e-08 -1.17939085e-20)
(-7.68627086e-20 8.68985753e-08 -1.4615582e-20)
(-9.41376884e-20 1.06426222e-07 -1.79002158e-20)
(-1.14207049e-19 1.29111946e-07 -2.17160427e-20)
(-1.37415064e-19 1.55344815e-07 -2.61284569e-20)
(-1.64077016e-19 1.85481137e-07 -3.11973208e-20)
(-1.94460895e-19 2.19823766e-07 -3.69734827e-20)
(-2.28765254e-19 2.5859709e-07 -4.34945669e-20)
(-2.6709397e-19 3.01918496e-07 -5.07801763e-20)
(-3.09429143e-19 3.49767745e-07 -5.88267456e-20)
(-3.55603946e-19 4.01956292e-07 -6.76023907e-20)
(-4.05277804e-19 4.58099222e-07 -7.70422028e-20)
(-4.57916723e-19 5.17593029e-07 -8.70445307e-20)
(-5.12781909e-19 5.79602746e-07 -9.74688404e-20)
(-5.68929754e-19 6.4306193e-07 -1.08135738e-19)
(-6.25225846e-19 7.06688493e-07 -1.18829659e-19)
(-6.80374742e-19 7.69018356e-07 -1.29304544e-19)
(-7.32965885e-19 8.28457339e-07 -1.39292576e-19)
(-7.8153433e-19 8.83349789e-07 -1.48515715e-19)
(-8.24633061e-19 9.32060316e-07 -1.56699419e-19)
(-8.6091203e-19 9.73063112e-07 -1.63587623e-19)
(-8.89197857e-19 1.00503203e-06 -1.68957838e-19)
(-6.56642707e-21 7.42465212e-09 -1.24866053e-21)
(-1.97711462e-20 2.23551357e-08 -3.75964241e-21)
(-3.34360823e-20 3.78056966e-08 -6.35812352e-21)
(-4.81843276e-20 5.44805157e-08 -9.16257891e-21)
(-6.46279478e-20 7.30713452e-08 -1.22893802e-20)
(-8.33786321e-20 9.42695107e-08 -1.58548179e-20)
(-1.05054271e-19 1.18773337e-07 -1.99763492e-20)
(-1.3028075e-19 1.47290174e-07 -2.47729339e-20)
(-1.59688214e-19 1.80532176e-07 -3.03643192e-20)
(-1.93901082e-19 2.19205017e-07 -3.68691357e-20)
(-2.33521184e-19 2.63988843e-07 -4.44016846e-20)
(-2.79103597e-19 3.15510955e-07 -5.30673373e-20)
(-3.31125112e-19 3.74310183e-07 -6.29565356e-20)
(-3.89945796e-19 4.4079344e-07 -7.41374823e-20)
(-4.55764842e-19 5.15185834e-07 -8.6647751e-20)
(-5.28572794e-19 5.97476663e-07 -1.00485212e-19)
(-6.08103233e-19 6.87364818e-07 -1.15598869e-19)
(-6.93788052e-19 7.8420823e-07 -1.31880383e-19)
(-7.8472132e-19 8.8698303e-07 -1.49157247e-19)
(-8.7963732e-19 9.94258734e-07 -1.67188659e-19)
(-9.76908372e-19 1.10419577e-06 -1.85665165e-19)
(-1.07456735e-18 1.21457094e-06 -2.04212989e-19)
(-1.17035823e-18 1.32283456e-06 -2.22403689e-19)
(-1.26181568e-18 1.42620036e-06 -2.39769297e-19)
(-1.34637143e-18 1.52176574e-06 -2.55822525e-19)
(-1.42148185e-18 1.60665598e-06 -2.70080967e-19)
(-1.48476796e-18 1.67818239e-06 -2.82093614e-19)
(-1.53415649e-18 1.7340018e-06 -2.91467555e-19)
(-9.46439355e-21 1.07012371e-08 -1.79972722e-21)
(-2.84937891e-20 3.22173451e-08 -5.41830488e-21)
(-4.8191397e-20 5.44885602e-08 -9.16392287e-21)
(-6.94751676e-20 7.85523019e-08 -1.32111164e-20)
(-9.32477251e-20 1.05428713e-07 -1.77314954e-20)
(-1.20413451e-19 1.36139919e-07 -2.28969879e-20)
(-1.51889445e-19 1.71722406e-07 -2.88819177e-20)
(-1.88609335e-19 2.13231326e-07 -3.58637219e-20)
(-2.31518823e-19 2.61735462e-07 -4.40220929e-20)
(-2.81561827e-19 3.18301571e-07 -5.35363339e-20)
(-3.3965619e-19 3.83966938e-07 -6.45807278e-20)
(-4.06658185e-19 4.59699263e-07 -7.73177769e-20)
(-4.83315521e-19 5.46343549e-07 -9.18892587e-20)
(-5.70209343e-19 6.44556559e-07 -1.08405194e-19)
(-6.67686797e-19 7.54730602e-07 -1.2693103e-19)
(-7.75787115e-19 8.76909986e-07 -1.47473604e-19)
(-8.94165766e-19 1.01070531e-06 -1.69966759e-19)
(-1.0220229e-18 1.15521257e-06 -1.94257795e-19)
(-1.15804386e-18 1.30894595e-06 -2.20096231e-19)
(-1.30036051e-18 1.4697941e-06 -2.47126561e-19)
(-1.44654253e-18 1.63501035e-06 -2.74886701e-19)
(-1.59362693e-18 1.80124597e-06 -3.02813702e-19)
(-1.73819152e-18 1.96463331e-06 -3.30257809e-19)
(-1.87647468e-18 2.12092113e-06 -3.56505264e-19)
(-2.00453852e-18 2.26565897e-06 -3.80809299e-19)
(-2.11846688e-18 2.39442095e-06 -4.02427672e-19)
(-2.21458424e-18 2.50305313e-06 -4.20664097e-19)
(-2.28967717e-18 2.5879238e-06 -4.34910098e-19)
(-1.2692235e-20 1.43506395e-08 -2.41351562e-21)
(-3.82114642e-20 4.32041141e-08 -7.2661588e-21)
(-6.46447807e-20 7.30905283e-08 -1.229258e-20)
(-9.32585042e-20 1.05441019e-07 -1.77335443e-20)
(-1.25300445e-19 1.41665861e-07 -2.38262792e-20)
(-1.62025857e-19 1.83183735e-07 -3.08094014e-20)
(-2.04714789e-19 2.31441327e-07 -3.89262047e-20)
(-2.54679441e-19 2.87921644e-07 -4.84260455e-20)
(-3.13259915e-19 3.54139205e-07 -5.95635171e-20)
(-3.81806641e-19 4.31620198e-07 -7.25950893e-20)
(-4.61647872e-19 5.21865733e-07 -8.77729047e-20)
(-5.54040848e-19 6.26296665e-07 -1.05335472e-19)
(-6.60105889e-19 7.46179102e-07 -1.25495115e-19)
(-7.80743665e-19 8.82530908e-07 -1.48422232e-19)
(-9.16537477e-19 1.03601126e-06 -1.74226719e-19)
(-1.06764435e-18 1.20679756e-06 -2.02937291e-19)
(-1.2336812e-18 1.39445678e-06 -2.34479901e-19)
(-1.41361494e-18 1.5978213e-06 -2.68656939e-19)
(-1.60566795e-18 1.81488199e-06 -3.05129405e-19)
(-1.80725216e-18 2.04271382e-06 -3.43404557e-19)
(-2.01494601e-18 2.27744981e-06 -3.8283175e-19)
(-2.22452764e-18 2.51431851e-06 -4.22608936e-19)
(-2.43107415e-18 2.74775627e-06 -4.61801731e-19)
(-2.62913199e-18 2.97159975e-06 -4.99375881e-19)
(-2.81295505e-18 3.17935501e-06 -5.34242492e-19)
(-2.97679845e-18 3.36452956e-06 -5.65313702e-19)
(-3.11524699e-18 3.52100347e-06 -5.91564754e-19)
(-3.22354958e-18 3.64340733e-06 -6.12097107e-19)
(-1.63674452e-20 1.85056512e-08 -3.11236389e-21)
(-4.92801377e-20 5.57177572e-08 -9.37088021e-21)
(-8.34077119e-20 9.43026978e-08 -1.58603455e-20)
(-1.20438473e-19 1.36168529e-07 -2.29017438e-20)
(-1.62041041e-19 1.83201125e-07 -3.08122872e-20)
(-2.09902713e-19 2.37307463e-07 -3.99126966e-20)
(-2.65756121e-19 3.00445736e-07 -5.05322517e-20)
(-3.31392478e-19 3.74640323e-07 -6.3011285e-20)
(-4.0865904e-19 4.6197892e-07 -7.77006706e-20)
(-4.99438289e-19 5.6458902e-07 -9.49578284e-20)
(-6.05606348e-19 6.84590918e-07 -1.15138778e-19)
(-7.2896828e-19 8.2402459e-07 -1.38585794e-19)
(-8.7116859e-19 9.84748536e-07 -1.65610347e-19)
(-1.03357658e-18 1.16831022e-06 -1.96471284e-19)
(-1.21714834e-18 1.37579006e-06 -2.31348578e-19)
(-1.42226992e-18 1.60762422e-06 -2.70313555e-19)
(-1.64858992e-18 1.86341539e-06 -3.13297161e-19)
(-1.89485377e-18 2.14174547e-06 -3.60058613e-19)
(-2.15875582e-18 2.44000852e-06 -4.10157551e-19)
(-2.4368293e-18 2.75428629e-06 -4.62933433e-19)
(-2.72439555e-18 3.07929104e-06 -5.1749631e-19)
(-3.01559414e-18 3.40839946e-06 -5.72732942e-19)
(-3.30351067e-18 3.73379728e-06 -6.27331472e-19)
(-3.58041194e-18 4.04674497e-06 -6.7982633e-19)
(-3.83808591e-18 4.33796196e-06 -7.28662839e-19)
(-4.06827007e-18 4.59811073e-06 -7.72278302e-19)
(-4.26313682e-18 4.81834534e-06 -8.09193627e-19)
(-4.41579254e-18 4.99087523e-06 -8.38107254e-19)
(-2.06084908e-20 2.33001616e-08 -3.91879309e-21)
(-6.20589447e-20 7.01641638e-08 -1.1800741e-20)
(-1.05098462e-19 1.18823831e-07 -1.99847487e-20)
(-1.51932892e-19 1.71772137e-07 -2.88901751e-20)
(-2.04750509e-19 2.31482274e-07 -3.89329931e-20)
(-2.65777705e-19 3.00470504e-07 -5.05363534e-20)
(-3.37318977e-19 3.81341339e-07 -6.41381575e-20)
(-4.21779594e-19 4.76813158e-07 -8.01953261e-20)
(-5.21667223e-19 5.8972004e-07 -9.91840556e-20)
(-6.39568868e-19 7.22985706e-07 -1.2159537e-19)
(-7.78099644e-19 8.79565628e-07 -1.47925305e-19)
(-9.3981935e-19 1.06235273e-06 -1.78658964e-19)
(-1.12711362e-18 1.27404304e-06 -2.14247843e-19)
(-1.34203798e-18 1.5169595e-06 -2.55080119e-19)
(-1.58612601e-18 1.79283504e-06 -3.01444146e-19)
(-1.86016664e-18 2.10256097e-06 -3.53486169e-19)
(-2.16396097e-18 2.44591209e-06 -4.11164225e-19)
(-2.49607489e-18 2.82126717e-06 -4.74201407e-19)
(-2.85361039e-18 3.22535055e-06 -5.42042836e-19)
(-3.23202457e-18 3.65302762e-06 -6.13821867e-19)
(-3.62502915e-18 4.09719139e-06 -6.88341758e-19)
(-4.02460433e-18 4.54877818e-06 -7.64079114e-19)
(-4.42115573e-18 4.99694512e-06 -8.39214467e-19)
(-4.80383246e-18 5.42942957e-06 -9.11693214e-19)
(-5.16100684e-18 5.8330913e-06 -9.79316835e-19)
(-5.4808941e-18 6.19461278e-06 -1.03986012e-18)
(-5.75226647e-18 6.50130602e-06 -1.09120567e-18)
(-5.9651954e-18 6.74195123e-06 -1.13148318e-18)
(-2.55348712e-20 2.88692245e-08 -4.85551794e-21)
(-7.69107559e-20 8.69534373e-08 -1.46247145e-20)
(-1.30343985e-19 1.47362491e-07 -2.47849523e-20)
(-1.8867736e-19 2.13309231e-07 -3.58766498e-20)
(-2.54743646e-19 2.87995257e-07 -4.84382467e-20)
(-3.31445052e-19 3.74700641e-07 -6.30212754e-20)
(-4.21811581e-19 4.76849864e-07 -8.0201404e-20)
(-5.29038716e-19 5.98054391e-07 -1.00585531e-19)
(-6.56497025e-19 7.42123532e-07 -1.2481352e-19)
(-8.07708654e-19 9.1303787e-07 -1.53553621e-19)
(-9.8628674e-19 1.11488077e-06 -1.87490806e-19)
(-1.19583049e-18 1.35171978e-06 -2.27306676e-19)
(-1.4397704e-18 1.62743168e-06 -2.73649869e-19)
(-1.72115937e-18 1.94546639e-06 -3.27096209e-19)
(-2.04240943e-18 2.30854937e-06 -3.88098576e-19)
(-2.40497897e-18 2.71832813e-06 -4.56927474e-19)
(-2.8090228e-18 3.17497683e-06 -5.33604723e-19)
(-3.25302633e-18 3.67678282e-06 -6.17834376e-19)
(-3.73345527e-18 4.21975089e-06 -7.08936915e-19)
(-4.24446244e-18 4.79727207e-06 -8.05794645e-19)
(-4.77770143e-18 5.3999132e-06 -9.06817711e-19)
(-5.32229992e-18 6.01538694e-06 -1.00994063e-18)
(-5.86504077e-18 6.6287565e-06 -1.11265824e-18)
(-6.39078411e-18 7.22291283e-06 -1.21210699e-18)
(-6.88313845e-18 7.77933291e-06 -1.30519274e-18)
(-7.32535373e-18 8.27908893e-06 -1.38875955e-18)
(-7.70137064e-18 8.70403391e-06 -1.45978684e-18)
(-7.9969253e-18 9.03804983e-06 -1.51559586e-18)
(-3.12658321e-20 3.53476039e-08 -5.94520131e-21)
(-9.41991656e-20 1.06496491e-07 -1.79119003e-20)
(-1.59776448e-19 1.80633117e-07 -3.03810881e-20)
(-2.3162145e-19 2.61852972e-07 -4.40415963e-20)
(-3.13365531e-19 3.54260225e-07 -5.95835873e-20)
(-4.08758089e-19 4.62092452e-07 -7.77194919e-20)
(-5.21747748e-19 5.89812347e-07 -9.91993562e-20)
(-6.56545303e-19 7.42178869e-07 -1.24822693e-19)
(-8.17647071e-19 9.24273609e-07 -1.55442766e-19)
(-1.00981303e-18 1.14147607e-06 -1.91962234e-19)
(-1.23799944e-18 1.39938748e-06 -2.35320091e-19)
(-1.50723026e-18 1.70368543e-06 -2.86466942e-19)
(-1.82239977e-18 2.05990075e-06 -3.46327159e-19)
(-2.18799686e-18 2.47310584e-06 -4.1574618e-19)
(-2.60774823e-18 2.94751144e-06 -4.95422474e-19)
(-3.08418371e-18 3.48597527e-06 -5.85824876e-19)
(-3.61813753e-18 4.08943857e-06 -6.87098063e-19)
(-4.20821222e-18 4.75632023e-06 -7.9896139e-19)
(-4.85024698e-18 5.48191624e-06 -9.20609173e-19)
(-5.53684965e-18 6.25787102e-06 -1.05062376e-18)
(-6.25706625e-18 7.07180423e-06 -1.18691543e-18)
(-6.99627037e-18 7.90718605e-06 -1.32670444e-18)
(-7.73635156e-18 8.74355033e-06 -1.46656001e-18)
(-8.45626319e-18 9.55711384e-06 -1.60250677e-18)
(-9.13295317e-18 1.0321828e-05 -1.73020248e-18)
(-9.7426472e-18 1.10108288e-05 -1.8451804e-18)
(-1.02623911e-17 1.15981795e-05 -1.94313815e-18)
(-1.0671699e-17 1.20607327e-05 -2.02024426e-18)
(-3.79168476e-20 4.28657994e-08 -7.20978464e-21)
(-1.14280516e-19 1.29196036e-07 -2.17300043e-20)
(-1.94024112e-19 2.1934573e-07 -3.68925168e-20)
(-2.81716195e-19 3.18478159e-07 -5.35656697e-20)
(-3.81974806e-19 4.31812647e-07 -7.26270454e-20)
(-4.99610586e-19 5.64786185e-07 -9.49905681e-20)
(-6.39726514e-19 7.23166111e-07 -1.21625324e-19)
(-8.07831769e-19 9.13178779e-07 -1.53577011e-19)
(-1.00988607e-18 1.14155964e-06 -1.91976109e-19)
(-1.25227789e-18 1.41552858e-06 -2.38033387e-19)
(-1.54176014e-18 1.74271713e-06 -2.93027239e-19)
(-1.88529602e-18 2.13099423e-06 -3.58273858e-19)
(-2.28981418e-18 2.58818934e-06 -4.35080086e-19)
(-2.76185006e-18 3.1216871e-06 -5.24674662e-19)
(-3.30706931e-18 3.73788855e-06 -6.28117119e-19)
(-3.92966996e-18 4.44153561e-06 -7.46183952e-19)
(-4.63167917e-18 5.23491636e-06 -8.79235238e-19)
(-5.41217531e-18 6.11698611e-06 -1.02706791e-18)
(-6.26648926e-18 7.08246515e-06 -1.18876617e-18)
(-7.18546715e-18 8.12100603e-06 -1.36256502e-18)
(-8.15490339e-18 9.21655331e-06 -1.54574741e-18)
(-9.15527077e-18 1.03470391e-05 -1.73459912e-18)
(-1.01618769e-17 1.148456e-05 -1.92444465e-18)
(-1.11455538e-17 1.25961568e-05 -2.10978353e-18)
(-1.20739351e-17 1.36452576e-05 -2.28453534e-18)
(-1.29132942e-17 1.45937549e-05 -2.44238681e-18)
(-1.36308131e-17 1.54045682e-05 -2.57721515e-18)
(-1.4197048e-17 1.60444305e-05 -2.6835437e-18)
(-4.55911937e-20 5.15405195e-08 -8.66888456e-21)
(-1.37487239e-19 1.55427754e-07 -2.61421692e-20)
(-2.33698209e-19 2.64191097e-07 -4.44353263e-20)
(-3.39892914e-19 3.84237308e-07 -6.46257142e-20)
(-4.61910494e-19 5.22165804e-07 -8.78228096e-20)
(-6.05899168e-19 6.84925307e-07 -1.15194419e-19)
(-7.78385573e-19 8.79892141e-07 -1.47979632e-19)
(-9.86529185e-19 1.11515775e-06 -1.87536866e-19)
(-1.238188e-18 1.39960288e-06 -2.35355908e-19)
(-1.54187131e-18 1.74284407e-06 -2.93048351e-19)
(-1.90671859e-18 2.15520971e-06 -3.62342803e-19)
(-2.34230912e-18 2.64752471e-06 -4.45047745e-19)
(-2.8583741e-18 3.23078497e-06 -5.42995701e-19)
(-3.46433494e-18 3.91563544e-06 -6.57954298e-19)
(-4.16867823e-18 4.71166367e-06 -7.91506391e-19)
(-4.9781425e-18 5.62648078e-06 -9.44894826e-19)
(-5.89673826e-18 6.66461416e-06 -1.11883635e-18)
(-6.92463246e-18 7.82624725e-06 -1.31331119e-18)
(-8.05696112e-18 9.10587825e-06 -1.52734102e-18)
(-9.28268301e-18 1.04910254e-05 -1.75877743e-18)
(-1.05836315e-17 1.19611566e-05 -2.00413085e-18)
(-1.19339586e-17 1.34870612e-05 -2.25847653e-18)
(-1.33001783e-17 1.50309006e-05 -2.51547548e-18)
(-1.46419954e-17 1.6547144e-05 -2.76754303e-18)
(-1.59140346e-17 1.79845226e-05 -3.00618344e-18)
(-1.70684617e-17 1.92889912e-05 -3.22248532e-18)
(-1.80583223e-17 2.04074997e-05 -3.40774192e-18)
(-1.88412444e-17 2.12921763e-05 -3.55412957e-18)
(-5.4312363e-20 6.13982874e-08 -1.03269424e-20)
(-1.64089812e-19 1.85497294e-07 -3.11997375e-20)
(-2.79386221e-19 3.15833145e-07 -5.3121048e-20)
(-4.07036102e-19 4.6013001e-07 -7.7389596e-20)
(-5.54432638e-19 6.26743713e-07 -1.05409919e-19)
(-7.29468661e-19 8.24594728e-07 -1.38680874e-19)
(-9.40327936e-19 1.06293219e-06 -1.78755594e-19)
(-1.19626187e-18 1.35221172e-06 -2.27388622e-19)
(-1.50761029e-18 1.70411873e-06 -2.86539117e-19)
(-1.885587e-18 2.13132595e-06 -3.58329105e-19)
(-2.34248767e-18 2.6477281e-06 -4.45081635e-19)
(-2.89137876e-18 3.26809011e-06 -5.49259975e-19)
(-3.54581902e-18 4.00773212e-06 -6.73412621e-19)
(-4.31925259e-18 4.88184333e-06 -8.20055671e-19)
(-5.2242184e-18 5.90458846e-06 -9.91520317e-19)
(-6.27124996e-18 7.08786445e-06 -1.18974204e-18)
(-7.46753054e-18 8.43978112e-06 -1.41600464e-18)
(-8.81531686e-18 9.96288038e-06 -1.6706426e-18)
(-1.03101933e-17 1.16521645e-05 -1.95271509e-18)
(-1.19393126e-17 1.3493109e-05 -2.25968224e-18)
(-1.36798435e-17 1.545991e-05 -2.58712689e-18)
(-1.54979197e-17 1.75142971e-05 -2.9285767e-18)
(-1.73484167e-17 1.96052825e-05 -3.27548714e-18)
(-1.91758736e-17 2.16702021e-05 -3.6174403e-18)
(-2.0916788e-17 2.36373088e-05 -3.94259582e-18)
(-2.25033303e-17 2.54299691e-05 -4.23839492e-18)
(-2.3868258e-17 2.69722133e-05 -4.49246894e-18)
(-2.49504963e-17 2.81950418e-05 -4.69365118e-18)
(-6.4477874e-20 7.28884571e-08 -1.22595103e-20)
(-1.94616483e-19 2.20001746e-07 -3.70030473e-20)
(-3.3141797e-19 3.74644595e-07 -6.3012188e-20)
(-4.83564244e-19 5.4662914e-07 -9.19365103e-20)
(-6.60596579e-19 7.46739025e-07 -1.25588343e-19)
(-8.72058974e-19 9.85760775e-07 -1.6577953e-19)
(-1.12803019e-18 1.2750851e-06 -2.14421981e-19)
(-1.44047222e-18 1.62823091e-06 -2.73783172e-19)
(-1.82311392e-18 2.06071342e-06 -3.46462767e-19)
(-2.29040135e-18 2.58885764e-06 -4.35191544e-19)
(-2.85885874e-18 3.23133619e-06 -5.43087657e-19)
(-3.54609957e-18 4.00805112e-06 -6.73465827e-19)
(-4.37088319e-18 4.94019766e-06 -8.29844296e-19)
(-5.35218061e-18 6.04920804e-06 -1.01576305e-18)
(-6.50828684e-18 7.35574825e-06 -1.23461054e-18)
(-7.85530273e-18 8.87800262e-06 -1.48933127e-18)
(-9.40533347e-18 1.06296386e-05 -1.78208142e-18)
(-1.11643058e-17 1.26173414e-05 -2.11381582e-18)
(-1.31294281e-17 1.48379448e-05 -2.48381374e-18)
(-1.52865257e-17 1.72754226e-05 -2.88919025e-18)
(-1.76075483e-17 1.98980733e-05 -3.324452e-18)
(-2.00486853e-17 2.26563915e-05 -3.78118029e-18)
(-2.25495999e-17 2.54822039e-05 -4.24793545e-18)
(-2.50343087e-17 2.82896623e-05 -4.71047382e-18)
(-2.74141379e-17 3.09785845e-05 -5.1523452e-18)
(-2.95929385e-17 3.3440344e-05 -5.55588742e-18)
(-3.147431e-17 3.5566032e-05 -5.9035559e-18)
(-3.29700496e-17 3.72560018e-05 -6.17943503e-18)
(-7.58411145e-20 8.57322188e-08 -1.44196583e-20)
(-2.28913824e-19 2.58767605e-07 -4.35227961e-20)
(-3.90211465e-19 4.41097871e-07 -7.41879622e-20)
(-5.70605583e-19 6.45009906e-07 -1.08480482e-19)
(-7.81463555e-19 8.83351125e-07 -1.48559022e-19)
(-1.03448055e-18 1.16933925e-06 -1.96643043e-19)
(-1.34269436e-18 1.5177091e-06 -2.55204812e-19)
(-1.72208743e-18 1.94652311e-06 -3.27272434e-19)
(-2.18936913e-18 2.47466428e-06 -4.16006709e-19)
(-2.76289572e-18 3.12287566e-06 -5.24873088e-19)
(-3.46539061e-18 3.9168342e-06 -6.58154521e-19)
(-4.32000025e-18 4.88269251e-06 -8.20197384e-19)
(-5.35264619e-18 6.04973655e-06 -1.01585122e-18)
(-6.58969865e-18 7.44775604e-06 -1.25001922e-18)
(-8.05758173e-18 9.1065983e-06 -1.52757386e-18)
(-9.78040999e-18 1.10534979e-05 -1.85289971e-18)
(-1.17777165e-17 1.33105103e-05 -2.2294555e-18)
(-1.40615255e-17 1.58912057e-05 -2.65921779e-18)
(-1.66326715e-17 1.87965119e-05 -3.14199283e-18)
(-1.94768332e-17 2.20102355e-05 -3.67469106e-18)
(-2.2560594e-17 2.54946122e-05 -4.25062949e-18)
(-2.58281937e-17 2.91866382e-05 -4.85899043e-18)
(-2.91997435e-17 3.29960536e-05 -5.4845795e-18)
(-3.25717548e-17 3.68059393e-05 -6.10802982e-18)
(-3.58207738e-17 4.04768223e-05 -6.70657549e-18)
(-3.8810594e-17 4.38548233e-05 -7.25544616e-18)
(-4.14028509e-17 4.67836245e-05 -7.72980922e-18)
(-4.34698685e-17 4.91189838e-05 -8.10703043e-18)
(-8.85086442e-20 1.00050015e-07 -1.68276024e-20)
(-2.67232852e-19 3.02078565e-07 -5.08065619e-20)
(-4.56009833e-19 5.1546771e-07 -8.66942967e-20)
(-6.68060886e-19 7.5516002e-07 -1.27002103e-19)
(-9.17092029e-19 1.03664598e-06 -1.74332079e-19)
(-1.2178588e-18 1.37660198e-06 -2.31483548e-19)
(-1.58696766e-18 1.79379585e-06 -3.01604011e-19)
(-2.0436882e-18 2.31000443e-06 -3.88341417e-19)
(-2.60869598e-18 2.94859222e-06 -4.95602416e-19)
(-3.30857433e-18 3.7395986e-06 -6.28402563e-19)
(-4.17094692e-18 4.71423584e-06 -7.91936508e-19)
(-5.22570375e-18 5.90627398e-06 -9.91801658e-19)
(-6.50959517e-18 7.35723195e-06 -1.23485808e-18)
(-8.05814061e-18 9.10723279e-06 -1.52767943e-18)
(-9.90943859e-18 1.11993096e-05 -1.87725715e-18)
(-1.20988398e-17 1.36733868e-05 -2.2899731e-18)
(-1.46567752e-17 1.65638275e-05 -2.77117118e-18)
(-1.76050294e-17 1.98952254e-05 -3.32444249e-18)
(-2.09513016e-17 2.36762623e-05 -3.95060483e-18)
(-2.46834756e-17 2.7893236e-05 -4.64665561e-18)
(-2.87634672e-17 3.25031121e-05 -5.40468862e-18)
(-3.31218079e-17 3.74274039e-05 -6.21100164e-18)
(-3.76540509e-17 4.25481122e-05 -7.0455997e-18)
(-4.22203276e-17 4.77072219e-05 -7.88232392e-18)
(-4.66494604e-17 5.27113465e-05 -8.6898211e-18)
(-5.07487084e-17 5.73427361e-05 -9.43347945e-18)
(-5.43192168e-17 6.13767316e-05 -1.00782583e-17)
(-5.71756375e-17 6.46039306e-05 -1.05920731e-17)
(-1.02487718e-19 1.15850045e-07 -1.94846736e-20)
(-3.09555148e-19 3.49913803e-07 -5.8850681e-20)
(-5.28792207e-19 5.97730507e-07 -1.00526892e-19)
(-7.76116516e-19 8.77290089e-07 -1.47536178e-19)
(-1.0681074e-18 1.20733033e-06 -2.03025252e-19)
(-1.42287864e-18 1.60832289e-06 -2.70429179e-19)
(-1.86094941e-18 2.10345722e-06 -3.53634828e-19)
(-2.40602743e-18 2.71952512e-06 -4.57126548e-19)
(-3.08549045e-18 3.48746419e-06 -5.86072892e-19)
(-3.93178663e-18 4.44393951e-06 -7.46585493e-19)
(-4.97954633e-18 5.62807833e-06 -9.45161089e-19)
(-6.27347734e-18 7.09039164e-06 -1.19016343e-18)
(-7.85854044e-18 8.88167003e-06 -1.48994331e-18)
(-9.78169817e-18 1.10549602e-05 -1.8531425e-18)
(-1.2099605e-17 1.36742552e-05 -2.29011664e-18)
(-1.48624161e-17 1.67962001e-05 -2.80983586e-18)
(-1.81160318e-17 2.04726302e-05 -3.42027243e-18)
(-2.18975633e-17 2.47454528e-05 -4.12751492e-18)
(-2.62265364e-17 2.96367115e-05 -4.93410726e-18)
(-3.10972899e-17 3.51400014e-05 -5.83765904e-18)
(-3.64693198e-17 4.12095608e-05 -6.82915009e-18)
(-4.22585484e-17 4.77504072e-05 -7.89151093e-18)
(-4.83306778e-17 5.46108245e-05 -8.99870938e-18)
(-5.44986097e-17 6.15794446e-05 -1.01156901e-17)
(-6.05263369e-17 6.83896397e-05 -1.11995335e-17)
(-6.61416113e-17 7.47338319e-05 -1.22021076e-17)
(-7.10582338e-17 8.02886755e-05 -1.3074175e-17)
(-7.50061232e-17 8.47490296e-05 -1.37704652e-17)
(-1.1772519e-19 1.33072245e-07 -2.23807176e-20)
(-3.55716161e-19 4.02087342e-07 -6.76237018e-20)
(-6.08296939e-19 6.87590548e-07 -1.15635657e-19)
(-8.94453432e-19 1.01103952e-06 -1.70021394e-19)
(-1.23408057e-18 1.39491917e-06 -2.34555749e-19)
(-1.64912182e-18 1.86402911e-06 -3.13398173e-19)
(-2.16465876e-18 2.44671443e-06 -4.11296722e-19)
(-2.80994177e-18 3.17602987e-06 -5.33779177e-19)
(-3.61933622e-18 4.09080806e-06 -6.87325534e-19)
(-4.63329266e-18 5.23675458e-06 -8.79541267e-19)
(-5.898663e-18 6.66680371e-06 -1.11920112e-18)
(-7.47063785e-18 8.44330628e-06 -1.41659287e-18)
(-9.40654482e-18 1.06310202e-05 -1.78231087e-18)
(-1.17793053e-17 1.33123168e-05 -2.22975331e-18)
(-1.46591495e-17 1.65665192e-05 -2.77161538e-18)
(-1.81188858e-17 2.04758604e-05 -3.42080614e-18)
(-2.22256202e-17 2.51161304e-05 -4.1888174e-18)
(-2.70408961e-17 3.05568403e-05 -5.08567339e-18)
(-3.26029189e-17 3.68411427e-05 -6.11655856e-18)
(-3.89198753e-17 4.39782872e-05 -7.28059437e-18)
(-4.59536756e-17 5.19252529e-05 -8.56797075e-18)
(-5.36066411e-17 6.05717037e-05 -9.95781791e-18)
(-6.17099433e-17 6.97269222e-05 -1.14166483e-17)
(-7.00168291e-17 7.91121478e-05 -1.2897919e-17)
(-7.82045334e-17 8.83627327e-05 -1.43433102e-17)
(-8.58896432e-17 9.70454972e-05 -1.56862993e-17)
(-9.26596148e-17 0.000104694339 -1.68580918e-17)
(-9.81188968e-17 0.000110862345 -1.77952198e-17)
(-1.34108255e-19 1.51589126e-07 -2.54942408e-20)
(-4.05376818e-19 4.58215972e-07 -7.7061002e-20)
(-6.93958208e-19 7.84408346e-07 -1.3191269e-19)
(-1.02227449e-18 1.15550736e-06 -1.94305564e-19)
(-1.41396356e-18 1.59822802e-06 -2.68723133e-19)
(-1.89532088e-18 2.14228798e-06 -3.60147302e-19)
(-2.49669137e-18 2.82197994e-06 -4.7431844e-19)
(-3.25383528e-18 3.67771415e-06 -6.17987912e-19)
(-4.20926614e-18 4.7575291e-06 -7.99161343e-19)
(-5.41353936e-18 6.11854584e-06 -1.02732655e-18)
(-6.92632961e-18 7.82818353e-06 -1.31363272e-18)
(-8.81740644e-18 9.96526e-06 -1.67103805e-18)
(-1.11660786e-17 1.26193625e-05 -2.1141507e-18)
(-1.40628308e-17 1.58926976e-05 -2.65946339e-18)
(-1.76108345e-17 1.99018006e-05 -3.32552708e-18)
(-2.19076586e-17 2.47568725e-05 -4.12940039e-18)
(-2.70451635e-17 3.05616702e-05 -5.08646643e-18)
(-3.3127541e-17 3.74338941e-05 -6.21365921e-18)
(-4.02178569e-17 4.54447954e-05 -7.5193452e-18)
(-4.83516592e-17 5.46345529e-05 -9.00583622e-18)
(-5.75018981e-17 6.49726364e-05 -1.0663086e-17)
(-6.75618872e-17 7.63385497e-05 -1.24660778e-17)
(-7.83260126e-17 8.85000246e-05 -1.43722859e-17)
(-8.94753775e-17 0.000101096793 -1.63205805e-17)
(-1.00573779e-16 0.000113636036 -1.82324193e-17)
(-1.11083898e-16 0.000125510673 -2.00165744e-17)
(-1.20410188e-16 0.000136047824 -2.15776451e-17)
(-1.2796923e-16 0.0001445883 -2.28274257e-17)
(-1.51459864e-19 1.71200589e-07 -2.87915446e-20)
(-4.58003689e-19 5.1769682e-07 -8.70610368e-20)
(-7.84870499e-19 8.87160505e-07 -1.49185563e-19)
(-1.1582642e-18 1.30920687e-06 -2.20138055e-19)
(-1.60597352e-18 1.81524187e-06 -3.05187408e-19)
(-2.15916667e-18 2.4404896e-06 -4.10235537e-19)
(-2.85415438e-18 3.22598391e-06 -5.42146081e-19)
(-3.73416978e-18 4.22057842e-06 -7.09072493e-19)
(-4.85117968e-18 5.48299152e-06 -9.20786078e-19)
(-6.26769966e-18 7.08385524e-06 -1.1889956e-18)
(-8.05851849e-18 9.10766131e-06 -1.52763591e-18)
(-1.03122085e-17 1.16544657e-05 -1.95309605e-18)
(-1.31320777e-17 1.48409635e-05 -2.48431341e-18)
(-1.66369514e-17 1.88013732e-05 -3.14279744e-18)
(-2.09605474e-17 2.36867342e-05 -3.95233844e-18)
(-2.62321655e-17 2.96430954e-05 -4.93516294e-18)
(-3.26124117e-17 3.68518883e-05 -6.11830901e-18)
(-4.02304366e-17 4.54590206e-05 -7.52165797e-18)
(-4.91860341e-17 5.5577259e-05 -9.15798149e-18)
(-5.95733895e-17 6.73130536e-05 -1.10371595e-17)
(-7.13882642e-17 8.06616692e-05 -1.31492298e-17)
(-8.45258518e-17 9.55047487e-05 -1.54647808e-17)
(-9.87472036e-17 0.000111572367 -1.79304874e-17)
(-1.13652647e-16 0.000128412985 -2.04670711e-17)
(-1.28663187e-16 0.000145372439 -2.29698472e-17)
(-1.43032093e-16 0.000161607026 -2.5314904e-17)
(-1.55898898e-16 0.000176144529 -2.73712387e-17)
(-1.66394515e-16 0.000188002983 -2.90177049e-17)
(-1.69535593e-19 1.91630396e-07 -3.22261376e-20)
(-5.12858038e-19 5.79694988e-07 -9.7483284e-20)
(-8.79767853e-19 9.94416269e-07 -1.67213426e-19)
(-1.30055337e-18 1.47002551e-06 -2.47163156e-19)
(-1.80752003e-18 2.04303303e-06 -3.43455389e-19)
(-2.43719043e-18 2.75471352e-06 -4.63001962e-19)
(-3.23250414e-18 3.65359095e-06 -6.13912861e-19)
(-4.24509434e-18 4.79800953e-06 -8.05914516e-19)
(-5.53767896e-18 6.25883341e-06 -1.05078101e-18)
(-7.18655472e-18 8.12226213e-06 -1.36277109e-18)
(-9.28411545e-18 1.04926733e-05 -1.75904856e-18)
(-1.19412311e-17 1.34953084e-05 -2.26004483e-18)
(-1.52891863e-17 1.7278463e-05 -2.88969202e-18)
(-1.94807748e-17 2.20147257e-05 -3.67543255e-18)
(-2.46894246e-17 2.78999962e-05 -4.64777166e-18)
(-3.1104388e-17 3.51480598e-05 -5.83898507e-18)
(-3.89322946e-17 4.39923546e-05 -7.28289861e-18)
(-4.83548079e-17 5.46381395e-05 -9.0064325e-18)
(-5.95760383e-17 6.73160642e-05 -1.10376112e-17)
(-7.27199673e-17 8.21662694e-05 -1.3386391e-17)
(-8.7844642e-17 9.92544137e-05 -1.60469008e-17)
(-1.04870785e-16 0.000118490993 -1.89855451e-17)
(-1.23540338e-16 0.000139584485 -2.21360482e-17)
(-1.43377319e-16 0.00016199712 -2.5397188e-17)
(-1.63634589e-16 0.000184884732 -2.86309939e-17)
(-1.83289584e-16 0.000207091948 -3.16710787e-17)
(-2.01100758e-16 0.000227215972 -3.43398392e-17)
(-2.15755844e-16 0.000243774104 -3.64735222e-17)
(-1.88023969e-19 2.12526527e-07 -3.57388046e-20)
(-5.68996136e-19 6.43143897e-07 -1.08148327e-19)
(-9.77022208e-19 1.10433564e-06 -1.85686754e-19)
(-1.44671086e-18 1.63521567e-06 -2.74918627e-19)
(-2.01518017e-18 2.277733e-06 -3.82876166e-19)
(-2.72471188e-18 3.07967017e-06 -5.17556316e-19)
(-3.62545019e-18 4.09769166e-06 -6.88421623e-19)
(-4.77825767e-18 5.40056892e-06 -9.06923199e-19)
(-6.25779878e-18 7.07266193e-06 -1.18705429e-18)
(-8.15586841e-18 9.21767685e-06 -1.54593023e-18)
(-1.05849084e-17 1.19626362e-05 -2.0043725e-18)
(-1.3681549e-17 1.54618784e-05 -2.5874492e-18)
(-1.76098541e-17 1.9900725e-05 -3.32488694e-18)
(-2.25637285e-17 2.54982055e-05 -4.25121943e-18)
(-2.87675772e-17 3.25078119e-05 -5.40546016e-18)
(-3.64740968e-17 4.12150168e-05 -6.83004403e-18)
(-4.59587756e-17 5.19310726e-05 -8.56892269e-18)
(-5.75029436e-17 6.49738694e-05 -1.06632913e-17)
(-7.13830666e-17 8.06558367e-05 -1.31483014e-17)
(-8.78483363e-17 9.92586105e-05 -1.60474391e-17)
(-1.07017407e-16 0.000120916338 -1.93537338e-17)
(-1.2888919e-16 0.000145627853 -2.3031524e-17)
(-1.53214146e-16 0.000173111243 -2.69975664e-17)
(-1.79479913e-16 0.00020278761 -3.11256879e-17)
(-2.06765441e-16 0.00023361627 -3.52357632e-17)
(-2.33708242e-16 0.000264057773 -3.91072485e-17)
(-2.58530535e-16 0.000292103447 -4.2503322e-17)
(-2.79217107e-16 0.000315476361 -4.52074362e-17)
(-2.06551284e-19 2.33466625e-07 -3.92585295e-20)
(-6.25283412e-19 7.06761284e-07 -1.18840569e-19)
(-1.07466609e-18 1.21469504e-06 -2.04231706e-19)
(-1.59377306e-18 1.80142797e-06 -3.02841405e-19)
(-2.22473115e-18 2.51456932e-06 -4.22647523e-19)
(-3.01586942e-18 3.40873501e-06 -5.72785142e-19)
(-4.02497115e-18 4.54922066e-06 -7.64148671e-19)
(-5.32278486e-18 6.01596648e-06 -1.01003257e-18)
(-6.99690888e-18 7.90794318e-06 -1.32682545e-18)
(-9.15611018e-18 1.03480281e-05 -1.73475809e-18)