/*--------------------------------*- C++ -*----------------------------------*\
| =========                 |                                                 |
| \\      /  F ield         | foam-extend: Open Source CFD                    |
|  \\    /   O peration     | Version:     4.1                                |
|   \\  /    A nd           | Web:         http://www.foam-extend.org         |
|    \\/     M anipulation  |                                                 |
\*---------------------------------------------------------------------------*/
FoamFile
{
    version     2.0;
    format      ascii;
    class       surfaceScalarField;
    location    "0.1";
    object      meshPhi;
}
// * * * * * * * * * * * * * * * * * * * * * * * * * * * * * * * * * * * * * //

dimensions      [0 3 -1 0 0 0 0];

internalField   nonuniform List<scalar> 
102656
(
-5.78241192e-21
2.85912677e-13
0
-2.31296489e-20
8.63615221e-13
-1.15648251e-20
0
1.46392417e-12
0
2.31296514e-20
2.11088037e-12
-5.78241402e-21
2.31296538e-20
2.83073874e-12
0
-4.62593106e-20
3.64967543e-12
0
-9.25186302e-20
4.59402953e-12
5.78241637e-21
0
5.69034526e-12
5.78241751e-21
3.53908651e-27
6.96518206e-12
-5.78241965e-21
-4.62593269e-20
8.44466232e-12
-1.15648427e-20
-4.6259344e-20
1.0153733e-11
1.15648443e-20
-9.25187012e-20
1.2115127e-11
5.78242562e-21
0
1.43480271e-11
-1.65932396e-27
-9.25187372e-20
1.68664563e-11
-5.78243112e-21
0
1.9677453e-11
-5.78243438e-21
-9.25188115e-20
2.27791209e-11
5.78243533e-21
-9.2518844e-20
2.61586881e-11
-5.78244188e-21
1.85037757e-19
2.97907458e-11
1.15648887e-20
1.85037797e-19
3.36358727e-11
3.8899292e-27
9.25189895e-20
3.76398663e-11
0
9.2518991e-20
4.17337983e-11
1.15649102e-20
1.85038013e-19
4.58350812e-11
-1.15649293e-20
-2.77557052e-19
4.98496612e-11
-5.76502517e-27
1.85038148e-19
5.36753592e-11
5.78246751e-21
0
5.72062587e-11
-5.78247781e-21
-1.85038201e-19
6.03379089e-11
5.78247446e-21
1.85038359e-19
6.29729973e-11
5.7824772e-21
6.50270756e-11
-1.15649662e-20
1.85038269e-19
0
5.77790466e-13
-5.78241189e-21
0
1.74509434e-12
-5.7824125e-21
1.15648251e-20
2.95793751e-12
-1.15648264e-20
0
4.26535355e-12
0
-6.93889595e-20
5.72097196e-12
1.15648295e-20
2.3129656e-20
7.37828418e-12
5.78241546e-21
-4.62593144e-20
9.29118091e-12
-5.43217252e-28
-2.97448637e-27
1.15140749e-11
1.73472543e-20
9.25186616e-20
1.4101544e-11
0
-9.25186644e-20
1.71074338e-11
0
9.25186855e-20
2.05833687e-11
-5.78242366e-21
0
2.45766387e-11
0
0
2.91274635e-11
5.78242699e-21
-9.25187594e-20
3.42656794e-11
-5.78243174e-21
9.25187678e-20
4.00069601e-11
-2.35107155e-27
-9.25188194e-20
4.63487565e-11
5.78243888e-21
9.25188535e-20
5.32662264e-11
5.78243984e-21
-9.25188596e-20
6.07085084e-11
-3.57558458e-27
9.25189284e-20
6.85957653e-11
0
9.25189681e-20
7.6817466e-11
5.78245241e-21
-4.22577227e-26
8.52323692e-11
-5.78245691e-21
0
9.36706063e-11
5.78246143e-21
9.25190872e-20
1.01938129e-10
0
-1.85038193e-19
1.09823579e-10
-5.78247659e-21
0
1.17107375e-10
5.78246708e-21
0
1.23572548e-10
0
0
1.29016573e-10
-1.15649684e-20
1.33263289e-10
-5.78249058e-21
0
-5.78241194e-21
8.86492448e-13
-5.78241194e-21
-1.15648246e-20
2.6774023e-12
-1.07819766e-28
-1.15648256e-20
4.53857367e-12
-1.15648266e-20
-6.12540944e-28
6.54653056e-12
-5.78241449e-21
2.31296552e-20
8.78515442e-12
-5.78241513e-21
-4.62593132e-20
1.13382628e-11
5.78241571e-21
0
1.42905508e-11
1.15648342e-20
0
1.77278739e-11
-5.78241806e-21
3.88657192e-27
2.17367714e-11
1.156484e-20
0
2.64031293e-11
-5.78242235e-21
4.62593438e-20
3.18098952e-11
-5.78242458e-21
0
3.80337857e-11
0
9.25187463e-20
4.51409701e-11
-5.78242828e-21
-1.89257271e-26
5.31817931e-11
-2.1876151e-27
0
6.21846929e-11
0
-9.2518842e-20
7.21495978e-11
0
1.85037731e-19
8.30412243e-11
0
3.35851956e-26
9.4782843e-11
5.78244709e-21
3.79417356e-26
1.07251205e-10
5.7824474e-21
0
1.20273401e-10
1.15649188e-20
-2.77557076e-19
1.33626448e-10
-5.78246202e-21
1.85038205e-19
1.47040277e-10
0
1.85038295e-19
1.6020462e-10
0
6.0352571e-26
1.72779927e-10
-5.78248447e-21
-1.85038456e-19
1.84412029e-10
-5.7824895e-21
0
1.94749774e-10
-1.1564988e-20
1.85038577e-19
2.034644e-10
5.78249777e-21
2.10269071e-10
5.78248292e-21
3.70076946e-19
5.78241194e-21
1.22518348e-12
0
2.31296494e-20
3.70059524e-12
0
2.31296507e-20
6.27476057e-12
1.1564827e-20
0
9.05608232e-12
5.7824142e-21
-4.62593087e-20
1.21636995e-11
5.7824151e-21
-4.62593143e-20
1.57170559e-11
-5.78241665e-21
4.62593213e-20
1.98374258e-11
0
0
2.46484912e-11
0
-4.62593319e-20
3.02758234e-11
5.78242048e-21
5.30574682e-27
3.68451145e-11
1.15648449e-20
-1.38778058e-19
4.44790161e-11
-1.15648525e-20
-4.62593621e-20
5.32924775e-11
0
0
6.33865319e-11
-5.78243271e-21
0
7.48405856e-11
-1.73473075e-20
-1.85037656e-19
8.77034066e-11
-1.15648823e-20
-2.97030468e-26
1.01983195e-10
-5.78244612e-21
9.25188945e-20
1.17637336e-10
-4.00097915e-27
3.92948263e-26
1.34562659e-10
0
0
1.52587252e-10
0
-9.25189869e-20
1.71465022e-10
5.78247085e-21
5.57998806e-26
1.9087424e-10
1.15649425e-20
-1.8503834e-19
2.10421215e-10
-7.32989332e-27
-1.85038379e-19
2.29649919e-10
0
0
2.48057896e-10
5.78249003e-21
-1.85038714e-19
2.65118095e-10
0
0
2.803055e-10
0
-1.85038697e-19
2.9312665e-10
-1.03692806e-26
3.03149555e-10
5.78250837e-21
1.85038742e-19
5.78241198e-21
1.60691806e-12
-5.78241203e-21
1.1564825e-20
4.85439442e-12
-5.78241279e-21
2.31296513e-20
8.23490157e-12
5.78241363e-21
2.31296532e-20
1.18951022e-11
-5.78241487e-21
-6.93889683e-20
1.59966558e-11
5.78241558e-21
4.62593174e-20
2.07023821e-11
-5.78241736e-21
0
2.6178643e-11
-1.15648371e-20
9.2518663e-20
3.25964226e-11
-5.78242078e-21
-4.6259333e-20
4.01308952e-11
0
0
4.89592532e-11
5.7824242e-21
0
5.92565714e-11
5.78242698e-21
9.25187666e-20
7.1189515e-11
0
-9.25188026e-20
8.49077714e-11
5.782434e-21
-9.25188181e-20
1.00533219e-10
0
9.25188601e-20
1.18147048e-10
-3.52075326e-27
-9.25189072e-20
1.37775308e-10
0
-9.25190008e-20
1.59373701e-10
0
-9.25190636e-20
1.82812763e-10
5.78246186e-21
5.4503674e-26
2.07864961e-10
-5.78247558e-21
1.85038342e-19
2.34195488e-10
-5.78248421e-21
0
2.6135868e-10
0
9.2519348e-20
2.88801871e-10
0
9.25195034e-20
3.15878122e-10
-5.78250144e-21
-9.25193983e-20
3.41868489e-10
-1.08490293e-26
1.8503891e-19
3.66013502e-10
-1.16683755e-26
1.85039212e-19
3.87552246e-10
-1.15650591e-20
-3.70078392e-19
4.05766225e-10
-1.30265677e-26
4.20024163e-10
0
1.85039369e-19
1.15648241e-20
2.04480344e-12
-5.78241209e-21
1.15648252e-20
6.17871054e-12
-3.06309624e-28
-1.15648263e-20
1.04878579e-11
-5.7824142e-21
2.31296543e-20
1.51657074e-11
-5.78241537e-21
1.16824975e-27
2.04261733e-11
-5.78241672e-21
-1.50717565e-27
2.64859235e-11
-6.68856349e-28
0
3.35680057e-11
1.15648394e-20
-4.78881736e-27
4.19037416e-11
-5.78242236e-21
5.94490969e-27
5.17325934e-11
0
-4.62593586e-20
6.32996625e-11
-1.15648547e-20
1.38778138e-19
7.68504853e-11
-2.03470502e-27
-1.08747653e-26
9.26227992e-11
0
9.25188478e-20
1.1083503e-10
0
-9.25188681e-20
1.31671415e-10
-3.60107724e-27
0
1.55263949e-10
5.78245454e-21
-9.25190251e-20
1.81671721e-10
-5.07654262e-27
9.25190478e-20
2.10858676e-10
1.73474016e-20
0
2.42671374e-10
-6.92254259e-27
0
2.76818919e-10
-5.78248343e-21
7.73944628e-26
3.1285766e-10
0
-1.85038825e-19
3.50183629e-10
-5.78252469e-21
-9.25193596e-20
3.88035595e-10
5.78251499e-21
1.85039297e-19
4.2551115e-10
-5.78253851e-21
-9.25198553e-20
4.61597182e-10
0
2.47469253e-25
4.95214528e-10
-5.78254622e-21
0
5.2527469e-10
-1.15651421e-20
0
5.50744428e-10
0
5.70712394e-10
0
0
0
2.55206934e-12
-5.78241217e-21
1.15648253e-20
7.7138846e-12
-1.77540173e-28
-1.15648265e-20
1.31034449e-11
5.78241432e-21
4.62593112e-20
1.89719188e-11
0
1.36615601e-27
2.55979633e-11
0
6.93889904e-20
3.32656581e-11
0
-4.62593378e-20
4.22699074e-11
-5.78242166e-21
9.25186934e-20
5.29196131e-11
-5.78242306e-21
7.09167362e-27
6.55381743e-11
0
4.62593806e-20
8.04608177e-11
5.78242946e-21
-4.625939e-20
9.80282764e-11
5.78243364e-21
-1.38778248e-19
1.18576286e-10
-5.78244162e-21
-9.25188739e-20
1.42420418e-10
-3.65279425e-27
-9.25189329e-20
1.69835976e-10
0
-9.25190468e-20
2.01033046e-10
5.78245926e-21
-9.25190777e-20
2.36127287e-10
-6.29768982e-27
6.42295859e-26
2.75107755e-10
-5.78249338e-21
7.47934305e-26
3.17803855e-10
8.68893853e-27
1.72509125e-25
3.63854401e-10
-5.78250227e-21
-9.25194725e-20
4.12682626e-10
-5.78252715e-21
1.85039397e-19
4.63481579e-10
5.78252964e-21
-9.25197039e-20
5.15214488e-10
-1.73476617e-20
-1.85039913e-19
5.66634111e-10
5.78255864e-21
0
6.16323661e-10
5.78259071e-21
1.85040388e-19
6.62759571e-10
5.78258618e-21
1.85040248e-19
7.04393341e-10
5.78261895e-21
-1.85040396e-19
7.39746417e-10
5.78260854e-21
7.67509201e-10
5.78261666e-21
0
1.15648245e-20
3.14201764e-12
5.7824122e-21
-2.31296516e-20
9.50058233e-12
-2.06628434e-28
-4.2839905e-28
1.61523586e-11
-5.78241512e-21
2.31296584e-20
2.34197055e-11
0
1.60427323e-27
3.16615878e-11
-5.78241861e-21
4.62593345e-20
4.12466122e-11
0
9.25186871e-20
5.25608736e-11
5.7824235e-21
-4.62593672e-20
6.60131054e-11
0
4.62593777e-20
8.20363491e-11
-1.90798473e-27
4.62593986e-20
1.01085392e-10
-2.38519555e-27
-4.62594107e-20
1.23629395e-10
0
-4.62594377e-20
1.50138839e-10
5.78244446e-21
0
1.81065912e-10
-4.46928304e-27
9.25190144e-20
2.16817755e-10
5.78246053e-21
9.25191585e-20
2.57722386e-10
5.7824772e-21
9.25192007e-20
3.03987858e-10
-7.84795507e-27
-9.25193936e-20
3.55656137e-10
-1.15650003e-20
0
4.12554406e-10
-1.09577336e-26
1.09690869e-25
4.74247847e-10
-1.27668069e-26
9.25199715e-20
5.3999941e-10
0
-9.251973e-20
6.08743206e-10
0
9.25200299e-20
6.79078716e-10
-1.15652026e-20
9.25205416e-20
7.49292472e-10
-2.11241165e-26
-1.85040869e-19
8.1741197e-10
-2.32555073e-26
3.70082329e-19
8.81293171e-10
5.78266458e-21
-1.85041202e-19
9.38738262e-10
-5.78268289e-21
-4.70025329e-25
9.87634974e-10
0
1.02610392e-09
0
-1.85042046e-19
-5.78241238e-21
3.82780428e-12
-5.78241238e-21
0
1.15792512e-11
-1.15648278e-20
-1.15648272e-20
1.97054531e-11
-5.78241571e-21
2.31296604e-20
2.86160831e-11
1.15648346e-20
2.31296652e-20
3.87694003e-11
-5.78241982e-21
-2.31296735e-20
5.06397882e-11
-5.78242246e-21
4.62593561e-20
6.47286681e-11
-5.78242427e-21
4.62593653e-20
8.15727966e-11
-1.79945077e-27
-9.25187687e-20
1.01747965e-10
-5.7824344e-21
4.62594203e-20
1.2586691e-10
5.78244027e-21
4.62594516e-20
1.54571182e-10
0
0
1.88515434e-10
-5.782456e-21
-9.25190679e-20
2.28342589e-10
0
1.85038289e-19
2.74648765e-10
5.78247852e-21
-9.25192973e-20
3.27937331e-10
1.15649776e-20
1.85038709e-19
3.88562395e-10
0
9.25196017e-20
4.5666335e-10
-5.78252851e-21
-1.85039327e-19
5.32093765e-10
5.78253614e-21
-9.25198431e-20
6.14350037e-10
-1.62025705e-26
9.2520037e-20
7.02507499e-10
5.78259971e-21
1.83853979e-25
7.9517388e-10
1.15652333e-20
-9.25206605e-20
8.90471239e-10
0
0
9.86057322e-10
0
-9.25208704e-20
1.07919486e-09
0
0
1.1668725e-09
-1.15654514e-20
5.87330807e-25
1.24597376e-09
-5.78276728e-21
0
1.3134817e-09
-5.78278883e-21
1.36669873e-09
5.78280591e-21
-1.85042955e-19
-1.1564825e-20
4.62193559e-12
-1.15648249e-20
0
1.39889706e-11
5.7824141e-21
4.62593142e-20
2.38323234e-11
5.78241589e-21
-1.63749828e-27
3.4667191e-11
0
-6.93889986e-20
4.70739311e-11
5.78242025e-21
-2.31296695e-20
6.16590038e-11
1.15648474e-20
0
7.90685853e-11
0
9.25187578e-20
1.00002562e-10
5.78243079e-21
0
1.25221685e-10
-5.78243876e-21
4.62594612e-20
1.55545993e-10
-3.43233341e-27
-1.38778415e-19
1.91846758e-10
-4.31085439e-27
9.25190629e-20
2.3502845e-10
-5.78246542e-21
0
2.85997991e-10
5.78246499e-21
9.25193096e-20
3.45619606e-10
-1.15649793e-20
-8.81031692e-26
4.146537e-10
5.78250194e-21
0
4.93679588e-10
0
-1.27373675e-25
5.83003578e-10
0
-9.25199462e-20
6.82556245e-10
-1.74007198e-26
9.252036e-20
7.91785685e-10
-5.78261699e-21
2.05835248e-25
9.09557417e-10
-5.78265128e-21
-9.25209501e-20
1.03407536e-09
0
0
1.162841e-09
5.78269541e-21
9.25215844e-20
1.29266855e-09
0
0
1.41977096e-09
-3.93870242e-26
-7.1934911e-25
1.53992523e-09
-4.31428888e-26
-7.71088912e-25
1.64871393e-09
1.15657091e-20
0
1.74182612e-09
-5.78290751e-21
1.81538629e-09
5.78287917e-21
-3.70090441e-19
0
5.53446652e-12
0
2.31296546e-20
1.67646227e-11
-3.2099927e-28
6.71660709e-28
2.859934e-11
0
-1.89863276e-27
4.16754134e-11
-8.10488545e-28
2.56514359e-27
5.67234006e-11
0
2.31296768e-20
7.45154217e-11
5.78242499e-21
0
9.58766184e-11
-1.94381929e-27
-4.62594058e-20
1.21712839e-10
-5.78243672e-21
-4.62594226e-20
1.53023618e-10
-3.2152445e-27
-9.25189149e-20
1.90898717e-10
-4.08848005e-27
4.62595233e-20
2.36512734e-10
-5.1655412e-27
4.62595814e-20
2.91106034e-10
-5.7824765e-21
-7.17455119e-26
3.55947475e-10
0
0
4.32277623e-10
-5.7825119e-21
-9.25196724e-20
5.21228623e-10
1.15650576e-20
-1.32023756e-25
6.23719918e-10
-1.50389342e-26
-9.25200188e-20
7.4033073e-10
-1.1565151e-20
9.25206761e-20
8.71153463e-10
5.78260811e-21
4.48641805e-25
1.01563579e-09
1.15653156e-20
9.2521209e-20
1.1724258e-09
-5.78271591e-21
9.25216145e-20
1.33924102e-09
0
9.25216936e-20
1.51278728e-09
5.78277626e-21
-9.25216934e-20
1.68875588e-09
5.78282435e-21
0
1.86192489e-09
0
0
2.02638154e-09
-5.62578115e-26
0
2.17586593e-09
5.78296095e-21
1.07027872e-24
2.30421364e-09
0
2.40584966e-09
-5.78309522e-21
1.85048332e-19
5.7824128e-21
6.58220774e-12
5.7824128e-21
1.15648271e-20
1.9946668e-11
-5.78241564e-21
7.69547527e-28
3.40607484e-11
5.78241728e-21
2.3129666e-20
4.97212105e-11
0
2.96378132e-27
6.78489815e-11
-1.15648477e-20
0
8.9409754e-11
0
0
1.15439555e-10
-5.78243197e-21
9.25188373e-20
1.47106453e-10
-2.93672651e-27
-4.62594289e-20
1.85719771e-10
5.78244565e-21
9.25190412e-20
2.32715528e-10
-1.156492e-20
4.62595679e-20
2.89664311e-10
0
9.25192441e-20
3.58253974e-10
-5.78248932e-21
-9.25193666e-20
4.40244335e-10
-9.74878277e-27
0
5.37398478e-10
0
1.33025812e-25
6.51379161e-10
0
9.25202154e-20
7.83610165e-10
-5.78259669e-21
9.2520168e-20
9.35101731e-10
0
2.37437828e-25
1.10624461e-09
-5.78268375e-21
9.25214125e-20
1.29657927e-09
-1.15654412e-20
9.25215784e-20
1.50455937e-09
5.7827577e-21
-1.85044127e-19
1.72733898e-09
5.78281603e-21
-1.85045592e-19
1.96062252e-09
-5.78287828e-21
-1.85046696e-19
2.19862209e-09
0
-5.58111457e-25
2.43416601e-09
5.78300794e-21
-1.85046984e-19
2.65899158e-09
5.78314402e-21
1.85049089e-19
2.8642308e-09
0
0
3.04106109e-09
0
3.18145002e-09
0
1.85050381e-19
-1.37644127e-28
7.77240443e-12
-1.37644127e-28
-5.59958843e-28
2.35578217e-11
5.78241535e-21
2.31296621e-20
4.02636418e-11
0
0
5.8886689e-11
-5.7824222e-21
4.62593606e-20
8.05654725e-11
-5.78242631e-21
4.62593785e-20
1.06492151e-10
0
4.62593993e-20
1.37981698e-10
5.78243508e-21
4.6259416e-20
1.76542357e-10
0
0
2.23850157e-10
-5.78245573e-21
-4.6259497e-20
2.81769375e-10
-5.78246837e-21
4.62596184e-20
3.5239521e-10
-7.25471757e-27
4.12531113e-26
4.38007202e-10
-1.15650078e-20
-9.25196262e-20
5.41022642e-10
-5.78252825e-21
-9.2519758e-20
6.63922182e-10
-1.15651015e-20
-9.25202043e-20
8.09116032e-10
0
0
9.7876318e-10
0
-9.25210246e-20
1.17453526e-09
5.78266109e-21
0
1.39733396e-09
-5.78271493e-21
0
1.64695792e-09
-5.78281724e-21
1.85045552e-19
1.92174584e-09
1.15656444e-20
4.89764121e-25
2.21823734e-09
-5.67715281e-26
-9.25231156e-20
2.53090804e-09
-5.78307186e-21
2.77573799e-19
2.85204825e-09
1.15662607e-20
0
3.17185795e-09
0
0
3.4788195e-09
0
0
3.76037673e-09
5.78334553e-21
-1.85055572e-19
4.00389062e-09
5.78341503e-21
4.19776669e-09
-5.78358831e-21
1.92317374e-24
0
9.1044688e-12
0
-1.15648288e-20
2.76079515e-11
0
-1.1564833e-20
4.72417663e-11
1.15648385e-20
-2.31296745e-20
6.92247514e-11
-5.78242356e-21
-2.31296809e-20
9.49445904e-11
0
-2.31296977e-20
1.25884439e-10
-5.78243404e-21
0
1.63711703e-10
5.7824384e-21
4.62594523e-20
2.10321696e-10
-3.90652083e-27
4.62595229e-20
2.67849805e-10
5.78245744e-21
4.62595901e-20
3.38743392e-10
-1.15649485e-20
4.62596745e-20
4.25739806e-10
0
4.62597314e-20
5.3185751e-10
5.78250938e-21
9.25196985e-20
6.60406426e-10
-1.38065235e-26
0
8.14843519e-10
0
0
9.98617343e-10
-5.78260906e-21
-9.2521009e-20
1.21494192e-09
-2.73136533e-26
0
1.46647663e-09
5.78271582e-21
1.85044451e-19
1.75495605e-09
-4.13583628e-26
-9.25225412e-20
2.08071344e-09
-5.78291378e-21
-9.2523307e-20
2.44214899e-09
1.15659078e-20
6.17649852e-25
2.83519898e-09
0
9.25264947e-20
3.25288424e-09
-5.7832475e-21
-9.25268257e-20
3.6850444e-09
-9.63345321e-26
9.28328328e-25
4.11837391e-09
0
1.85057784e-19
4.53687165e-09
5.78339191e-21
1.85059625e-19
4.92277506e-09
-5.78375745e-21
0
5.25795911e-09
0
5.52565075e-09
0
-1.85059844e-19
1.15648263e-20
1.05831752e-11
-1.7100978e-28
0
3.21080992e-11
0
-1.09691048e-27
5.50056514e-11
5.78241968e-21
2.31296746e-20
8.07502806e-11
-5.7824236e-21
0
1.11031326e-10
-5.78243021e-21
-5.78041667e-27
1.47683776e-10
-5.78243682e-21
-1.38778323e-19
1.92776133e-10
5.78244187e-21
-2.01470827e-26
2.48666693e-10
-5.78245598e-21
4.62595826e-20
3.18085428e-10
0
3.42099003e-26
4.04179008e-10
-5.78248734e-21
4.62596911e-20
5.10503964e-10
-9.80282499e-27
-4.62598619e-20
6.41099008e-10
0
9.25200398e-20
8.00379047e-10
-5.78257364e-21
0
9.93046666e-10
0
9.25206817e-20
1.22402508e-09
-2.60680064e-26
-2.91172636e-25
1.49802454e-09
-3.27380048e-26
0
1.81913397e-09
-1.1565599e-20
0
2.19039817e-09
0
-9.25229181e-20
2.61312801e-09
0
-9.25244499e-20
3.0861191e-09
-5.78315719e-21
-9.25263278e-20
3.60483767e-09
5.78330269e-21
9.25267536e-20
4.16067233e-09
1.15667153e-20
1.04642881e-24
4.74041669e-09
5.78351148e-21
9.25304834e-20
5.32615762e-09
1.3967805e-25
0
5.89576654e-09
0
0
6.42415113e-09
-5.78414992e-21
0
6.88529063e-09
-5.78429575e-21
7.25485403e-09
0
3.70136759e-19
-1.87603905e-28
1.22053694e-11
0
1.15648301e-20
3.7048695e-11
-5.78241731e-21
-1.20716064e-27
6.35431585e-11
0
2.31296776e-20
9.34584288e-11
-1.15648526e-20
-4.62593787e-20
1.28832927e-10
0
-4.6259415e-20
1.71901831e-10
5.78243682e-21
4.62594471e-20
2.25203791e-10
-5.78244913e-21
-4.62594969e-20
2.91677552e-10
0
4.62595908e-20
3.74758876e-10
5.78247065e-21
4.62597212e-20
4.78429979e-10
5.78249755e-21
5.06506629e-26
6.07316659e-10
5.78252367e-21
4.62598834e-20
7.66702823e-10
-5.782557e-21
-9.25202747e-20
9.62433654e-10
0
-9.25205316e-20
1.20096766e-09
5.78262826e-21
1.85042394e-19
1.4891436e-09
5.78268787e-21
0
1.83365017e-09
-5.78280017e-21
-4.33511769e-25
2.24064842e-09
-4.87474008e-26
9.25239673e-20
2.71520108e-09
5.78295852e-21
9.2525852e-20
3.26028249e-09
5.78316088e-21
9.25258041e-20
3.87566127e-09
5.78323443e-21
-1.85055438e-19
4.55668531e-09
-1.10079497e-25
1.85058764e-19
5.29306698e-09
-5.78385367e-21
1.3213146e-24
6.06795131e-09
0
9.2532213e-20
6.8574931e-09
0
0
7.63128355e-09
-2.00709473e-25
1.85070905e-19
8.35395512e-09
5.78442277e-21
0
8.98810786e-09
0
9.49832155e-09
0
-1.85075595e-19
5.78241342e-21
1.39618238e-11
0
-1.15648315e-20
4.24021667e-11
0
2.31296726e-20
7.28091557e-11
-1.15648446e-20
2.31296804e-20
1.07286667e-10
-5.78242759e-21
-2.31296881e-20
1.4827006e-10
-5.78243409e-21
-2.31297029e-20
1.98452672e-10
5.78243925e-21
0
2.60922753e-10
0
-9.25190636e-20
3.39295092e-10
5.7824557e-21
3.32211824e-26
4.37837998e-10
0
-9.25193732e-20
5.61586059e-10
-9.61685349e-27
9.25197317e-20
7.16449596e-10
-1.26210312e-26
-4.62599649e-20
9.09220794e-10
1.15651202e-20
-9.25205224e-20
1.14763534e-09
0
-9.25208352e-20
1.44046385e-09
-5.78268887e-21
0
1.79707791e-09
-3.56120583e-26
9.25222553e-20
2.22674417e-09
-5.78286671e-21
-9.25232164e-20
2.73846369e-09
0
-9.25237361e-20
3.34037472e-09
0
9.25257624e-20
4.03813394e-09
0
9.25283547e-20
4.83341612e-09
-1.10762655e-25
-9.25292263e-20
5.72217465e-09
0
-9.25312827e-20
6.69267242e-09
-1.61861894e-25
-9.25318459e-20
7.72392688e-09
0
-9.2535805e-20
8.78468656e-09
0
-1.85080503e-19
9.83354029e-09
5.78470669e-21
1.85080434e-19
1.08208141e-08
0
-1.8508931e-19
1.1692687e-08
-3.12779794e-25
1.23973458e-08
-3.35267023e-25
-1.85086918e-19
0
1.58365194e-11
5.78241332e-21
-3.46944953e-20
4.81201933e-11
5.7824182e-21
1.15648358e-20
8.27219483e-11
0
2.31296829e-20
1.22117472e-10
-5.78242875e-21
-2.3129697e-20
1.69186281e-10
0
-7.64754506e-27
2.27139462e-10
-5.7824448e-21
0
2.99694481e-10
5.78245199e-21
-2.74907238e-26
3.9124864e-10
0
4.62596585e-20
5.07051805e-10
1.15649754e-20
-4.62596802e-20
6.53373713e-10
0
6.37644974e-26
8.37657918e-10
5.7825379e-21
0
1.06863404e-09
0
0
1.35639589e-09
5.78265328e-21
-9.25211491e-20
1.71248535e-09
-5.78272653e-21
-9.25222645e-20
2.14943145e-09
-5.78281954e-21
0
2.68021618e-09
-1.15658208e-20
-9.25246021e-20
3.31811997e-09
5.78301569e-21
9.25261828e-20
4.07526937e-09
-5.78326247e-21
9.49002051e-25
4.96111525e-09
-5.78348025e-21
0
5.98098548e-09
-5.78374028e-21
9.25329596e-20
7.1328039e-09
-5.78404485e-21
0
8.40406732e-09
5.78399723e-21
-1.85074194e-19
9.76956668e-09
5.78454347e-21
-2.39509063e-24
1.11892459e-08
0
-3.70178498e-19
1.26074545e-08
5.78530242e-21
1.85098468e-19
1.39548217e-08
5.78604012e-21
0
1.5153812e-08
-1.15724374e-20
1.61281163e-08
-5.78629956e-21
0
0
1.78061145e-11
0
1.15648316e-20
5.41319752e-11
-6.95251971e-28
1.15648365e-20
9.3160261e-11
-5.78242367e-21
-2.31296849e-20
1.37772863e-10
5.7824279e-21
0
1.91337526e-10
-2.56175229e-27
0
2.57640167e-10
5.78244337e-21
-9.25190043e-20
3.41104939e-10
0
0
4.47018372e-10
0
4.62596886e-20
5.81760241e-10
0
1.3877946e-19
7.53038365e-10
-5.78252697e-21
-4.62599224e-20
9.70118123e-10
0
9.25203428e-20
1.24402746e-09
0
-9.25210207e-20
1.58771543e-09
-5.78267941e-21
-9.25217749e-20
2.01612234e-09
0
9.25227392e-20
2.54583068e-09
0
-5.37441594e-25
3.19489114e-09
-1.1566015e-20
-9.25248134e-20
3.98206514e-09
0
-9.25256471e-20
4.9251167e-09
1.15666929e-20
-9.25286264e-20
6.03963022e-09
-5.7835356e-21
0
7.33641974e-09
-5.78382419e-21
0
8.81724244e-09
-5.78436186e-21
1.85075035e-19
1.04706384e-08
-1.15693696e-20
0
1.2267947e-08
5.78501527e-21
-9.25424118e-20
1.41595211e-08
-5.78619406e-21
1.85105983e-19
1.60720726e-08
-4.00676964e-25
0
1.79096323e-08
-5.7869904e-21
0
1.95604561e-08
-5.09620599e-25
2.09110771e-08
0
0
5.7824137e-21
1.98397623e-11
0
-1.15648328e-20
6.03435945e-11
-5.78241878e-21
1.53202493e-27
1.03961874e-10
-1.24918746e-27
-4.62593773e-20
1.54011556e-10
-5.78243038e-21
-6.93891194e-20
2.14386473e-10
-5.78243827e-21
0
2.89497983e-10
5.78244478e-21
0
3.84547446e-10
5.78245686e-21
4.62595743e-20
5.05810403e-10
-6.79919432e-27
-1.38779056e-19
6.60938097e-10
-1.15649882e-20
4.62598561e-20
8.59276122e-10
5.7825223e-21
0
1.11219202e-09
1.64305949e-26
2.00070262e-25
1.43339238e-09
5.78260893e-21
1.85042217e-19
1.83919466e-09
0
-9.25217405e-20
2.34869085e-09
-1.15655933e-20
0
2.98369064e-09
-5.78291855e-21
6.01238422e-25
3.76846592e-09
0
-9.2526398e-20
4.72871916e-09
-5.78327609e-21
9.25286546e-20
5.89038409e-09
5.78341757e-21
1.28581901e-24
7.27806973e-09
5.78370226e-21
0
8.91085356e-09
-5.78423449e-21
0
1.07972155e-08
-2.28980381e-25
-1.85084994e-19
1.29297385e-08
5.78525872e-21
1.85095327e-19
1.52788182e-08
-5.78554934e-21
2.77661829e-19
1.77861652e-08
-1.15728015e-20
-1.85122822e-19
2.03583353e-08
0
0
2.28646736e-08
-5.78757539e-21
-1.85146123e-19
2.51444231e-08
-1.15771074e-20
2.70266217e-08
5.78878479e-21
-1.85143044e-19
5.78241373e-21
2.18993777e-11
5.78241349e-21
-9.79670553e-28
6.66387718e-11
-5.78241887e-21
0
1.14924695e-10
0
0
1.70529932e-10
0
-2.31297099e-20
2.37902754e-10
5.78243609e-21
-4.6259459e-20
3.22119737e-10
0
9.2519039e-20
4.29217282e-10
-5.7824633e-21
-4.62596165e-20
5.66544822e-10
-7.02382824e-27
0
7.43149572e-10
-1.15650135e-20
4.62598824e-20
9.70196488e-10
-1.15650672e-20
-9.25200911e-20
1.26141849e-09
1.15651515e-20
1.38780851e-19
1.63357913e-09
-2.3151244e-26
-9.25214213e-20
2.10691124e-09
0
1.85044341e-19
2.70546703e-09
-5.78282467e-21
9.2523086e-20
3.45727982e-09
0
0
4.39421275e-09
-5.78306373e-21
9.25272306e-20
5.55123932e-09
-5.78336393e-21
0
6.96504869e-09
5.78365586e-21
9.25331432e-20
8.67191097e-09
1.15678896e-20
-9.25335151e-20
1.0703831e-08
0
-9.25398834e-20
1.30816387e-08
5.78505648e-21
2.95858366e-24
1.58059466e-08
-3.32628386e-25
-9.25514848e-20
1.88508126e-08
5.78613409e-21
9.25585276e-20
2.21547094e-08
1.15744336e-20
-1.85142802e-19
2.56049301e-08
-5.78848599e-21
-1.22595998e-23
2.90285452e-08
-2.85081522e-21
0
3.21960603e-08
9.38847564e-23
3.48454772e-08
-1.14807377e-20
1.85188329e-19
-5.78241395e-21
2.39404477e-11
0
-2.31296648e-20
7.2881295e-11
0
-1.15648371e-20
1.25810803e-10
-1.15648471e-20
-4.51172814e-27
1.86967715e-10
0
6.34414189e-27
2.61370191e-10
-5.78243875e-21
-2.31297253e-20
3.54784461e-10
-5.7824494e-21
4.62595091e-20
4.74120817e-10
5.78245319e-21
0
6.27863673e-10
-5.78248258e-21
0
8.2655101e-10
5.7824985e-21
0
1.08331253e-09
-1.30816703e-26
1.38780241e-19
1.41446723e-09
0
-4.62601719e-20
1.84016788e-09
-5.78265078e-21
0
2.38505968e-09
5.78270146e-21
-9.25225479e-20
3.07889051e-09
-4.31857661e-26
-5.28824321e-25
3.95696877e-09
-1.15659225e-20
2.77575485e-19
5.06031082e-09
-1.15662886e-20
-9.3202624e-25
6.4352406e-09
0
9.25321027e-20
8.13215897e-09
-1.15673908e-20
-9.25314491e-20
1.02030836e-08
0
2.08427241e-24
1.26979975e-08
0
0
1.5656372e-08
0
1.85102021e-19
1.90966841e-08
0
-1.85118648e-19
2.30080245e-08
1.15739687e-20
-9.25663562e-20
2.73344818e-08
-5.78840862e-21
-1.85153293e-19
3.19520184e-08
-8.63568401e-21
1.53032527e-23
3.66458448e-08
-2.84277224e-21
1.85213688e-19
4.10956774e-08
-1.73766024e-20
4.48924979e-08
-2.31732706e-20
-1.85213336e-19
-5.78241387e-21
2.59134224e-11
-5.78241387e-21
-1.15648316e-20
7.89192452e-11
0
-1.49833129e-27
1.36353747e-10
-1.15648464e-20
2.31296858e-20
2.02918802e-10
5.78242821e-21
2.31297144e-20
2.84201884e-10
0
0
3.86663653e-10
0
0
5.18101914e-10
1.15649148e-20
-4.62596154e-20
6.88164156e-10
5.78247442e-21
-4.6259689e-20
9.08930617e-10
0
9.25197845e-20
1.19558461e-09
5.78252859e-21
-9.25201338e-20
1.56717913e-09
1.15651415e-20
-4.62605086e-20
2.04749623e-09
0
9.25212795e-20
2.66597573e-09
1.15654087e-20
9.25222239e-20
3.45865859e-09
0
0
4.46904447e-09
-5.92206485e-26
0
5.74869841e-09
5.78312901e-21
-9.25293355e-20
7.35735471e-09
-2.13281734e-25
1.29971443e-24
9.36216746e-09
-5.78383571e-21
1.72111869e-24
1.18356384e-08
-5.78430176e-21
2.26398971e-24
1.48516774e-08
-1.15695611e-20
1.85096361e-19
1.84775134e-08
-5.78567786e-21
0
2.27645491e-08
-5.78665817e-21
-9.25678204e-20
2.77361157e-08
-8.63842937e-21
1.85155805e-19
3.33627509e-08
-1.72672733e-20
0
3.95325472e-08
-2.02102167e-20
-1.8520907e-19
4.60105879e-08
-1.15838003e-20
0
5.23762829e-08
-2.89740989e-20
5.79830436e-08
-1.15943783e-20
1.85295202e-19
0
2.77656668e-11
-5.78241373e-21
-8.83435284e-28
8.45909823e-11
0
1.15648373e-20
1.46269035e-10
-5.78242306e-21
0
2.17947245e-10
0
2.31297048e-20
3.05763286e-10
-5.78243405e-21
2.31297358e-20
4.1685373e-10
-5.78244654e-21
0
5.59886844e-10
-5.78245513e-21
-3.07829805e-26
7.45659977e-10
-6.64929e-27
9.25194299e-20
9.87791011e-10
-5.78250289e-21
5.76915835e-26
1.30352954e-09
0
4.62600028e-20
1.71470745e-09
-1.7061389e-26
9.25207375e-20
2.24883807e-09
5.7826447e-21
9.25215163e-20
2.94035542e-09
0
9.252257e-20
3.83195523e-09
-4.31710961e-26
-5.39980945e-25
4.97595465e-09
-1.1565997e-20
9.25251719e-20
6.43552135e-09
-5.78320681e-21
0
8.28553347e-09
-5.78337891e-21
1.32740995e-24
1.0612721e-08
1.15675743e-20
1.77930826e-24
1.35146082e-08
-5.78435549e-21
-9.25423591e-20
1.70966353e-08
0
3.15628548e-24
2.14666337e-08
-3.45686482e-25
9.25603847e-20
2.67267427e-08
-5.78699894e-21
-1.85141681e-19
3.29617208e-08
-2.31526178e-20
-9.25761749e-20
4.02168672e-08
-1.15795053e-20
1.85205154e-19
4.84547147e-08
-1.15839353e-20
0
5.74871695e-08
-1.15894071e-20
0
6.6838536e-08
-1.73949585e-20
7.55031e-08
-1.1604379e-20
3.70707771e-19
1.94084073e-28
2.94438946e-11
0
2.31296616e-20
8.97326374e-11
5.78241694e-21
1.28020958e-27
1.55267392e-10
-5.782422e-21
3.75883449e-27
2.31607752e-10
-1.57981341e-27
2.3129705e-20
3.2540241e-10
0
7.42571773e-27
4.44419657e-10
-3.18795077e-27
4.62594778e-20
5.98146689e-10
5.78244703e-21
9.25191239e-20
7.98470034e-10
-6.10738976e-27
3.89327605e-26
1.06047462e-09
0
0
1.4033969e-09
-5.78252721e-21
0
1.85176408e-09
1.15651247e-20
9.25204974e-20
2.43674422e-09
5.78260742e-21
0
3.19771851e-09
5.78267981e-21
0
4.18406267e-09
5.78277855e-21
-9.25232169e-20
5.45708675e-09
-5.7830243e-21
-7.0083687e-25
7.09202787e-09
-7.59238183e-26
1.85055321e-19
9.17992158e-09
5.78344712e-21
1.29664876e-24
1.18291049e-08
-5.78381992e-21
-9.25326783e-20
1.51660553e-08
5.78413263e-21
-9.2540061e-20
1.93352943e-08
0
2.7764943e-19
2.44982478e-08
0
-1.85120273e-19
3.08313459e-08
-2.84417116e-21
0
3.85233652e-08
-2.83776162e-21
9.25831132e-20
4.77705486e-08
-1.15810039e-20
-3.70492757e-19
5.87513228e-08
-1.73812123e-20
-1.85336707e-19
7.15156293e-08
-5.79784234e-21
1.85437201e-19
8.57206693e-08
-1.74095436e-20
9.99079856e-08
-1.74249456e-20
-1.8554132e-19
5.7824131e-21
3.08969377e-11
-1.68041946e-28
-2.31296595e-20
9.41866519e-11
1.15648325e-20
2.31296675e-20
1.6306996e-10
0
0
2.43469435e-10
-5.78242395e-21
-4.62593762e-20
3.4248531e-10
-1.97560719e-27
6.47843121e-27
4.68447077e-10
-2.77872858e-27
0
6.3157343e-10
0
-4.62595413e-20
8.44729247e-10
0
3.42441174e-26
1.12432493e-09
-7.38417502e-27
4.6259765e-20
1.49140343e-09
5.7825033e-21
-4.62599429e-20
1.97295978e-09
5.78253789e-21
4.6260098e-20
2.6035349e-09
-5.7826047e-21
0
3.42711745e-09
5.78265066e-21
-9.25216286e-20
4.49937188e-09
-5.78277666e-21
-9.25227641e-20
5.89018631e-09
-1.1565776e-20
0
7.68650266e-09
0
-8.72586496e-25
9.99536898e-09
5.78335572e-21
0
1.29471757e-08
0
9.25350099e-20
1.66991875e-08
0
-9.25366405e-20
2.14399176e-08
5.78460489e-21
-1.85096291e-19
2.73958469e-08
-8.6340291e-21
0
3.48436904e-08
-1.44157368e-20
-9.25792963e-20
4.41334262e-08
-2.31533565e-20
9.26052708e-20
5.57273622e-08
-1.73734913e-20
0
7.02515209e-08
-1.15894577e-20
-1.85375316e-19
8.84761178e-08
-1.16011542e-20
5.52131275e-23
1.10779915e-07
-5.80997578e-21
1.35213031e-07
-1.74678203e-20
-1.85792439e-19
-5.78241295e-21
3.20786511e-11
-1.36663058e-28
2.31296571e-20
9.7810742e-11
-5.78241578e-21
-1.15648313e-20
1.69424304e-10
5.78241894e-21
0
2.53140953e-10
-1.11849404e-27
0
3.56433977e-10
-5.78242935e-21
-4.62593935e-20
4.88098627e-10
5.78243206e-21
-4.62594402e-20
6.58963331e-10
-3.16759361e-27
-4.6259497e-20
8.82711939e-10
-4.39263118e-27
0
1.17686932e-09
-5.78247242e-21
-4.62596438e-20
1.56400452e-09
0
-9.25196086e-20