/*--------------------------------*- C++ -*----------------------------------*\
| =========                 |                                                 |
| \\      /  F ield         | foam-extend: Open Source CFD                    |
|  \\    /   O peration     | Version:     4.1                                |
|   \\  /    A nd           | Web:         http://www.foam-extend.org         |
|    \\/     M anipulation  |                                                 |
\*---------------------------------------------------------------------------*/
FoamFile
{
    version     2.0;
    format      ascii;
    class       volScalarField;
    location    "0.1";
    object      p;
}
// * * * * * * * * * * * * * * * * * * * * * * * * * * * * * * * * * * * * * //

dimensions      [0 2 -2 0 0 0 0];

internalField   nonuniform List<scalar> 
35840
(
79.0681699
64.4238562
55.3588471
51.0384379
48.087441
45.7478882
43.9075257
42.3922375
41.0662251
39.8595076
38.7349411
37.669643
36.6486833
35.661843
34.7015879
33.7620387
32.8385357
31.9274541
31.0261134
30.1327
29.2461539
28.3660359
27.4923767
26.6255151
25.7659497
24.9142133
24.0707787
23.2360011
72.1881862
61.7824428
54.5968399
50.8169308
48.0478649
45.7651499
43.9447392
42.4394713
41.1153159
39.9054523
38.7761743
37.7060287
36.6805374
35.6896831
34.7259846
33.7834997
32.8574465
31.9440719
31.0405837
30.1450794
29.2564491
28.3742476
27.4985371
26.6297104
25.7683283
24.9149836
24.0701984
23.2343592
68.9976279
60.2334886
53.8796043
50.3778302
47.7931928
45.6362441
43.8879925
42.4254907
41.1267884
39.931006
38.8089281
37.7419777
36.7173492
35.7260483
34.7611985
33.8171787
32.8893631
31.9740627
31.0684999
30.1707651
29.2797422
28.394985
27.5165639
26.6449027
25.7806116
24.9243454
24.0766956
23.2381189
67.3806848
59.0452304
53.1469124
49.9204438
47.5277735
45.5098807
43.84971
42.4395424
41.1711293
39.9916085
38.8770096
37.8122923
36.7868767
35.7931328
34.8250013
33.8773294
32.9457497
32.0267071
31.1174782
30.2161529
29.3215721
28.4332235
27.5511094
26.6755944
25.8072554
24.9467488
24.0947025
23.2516419
66.2801283
58.0773746
52.4727122
49.4883845
47.2664639
45.3769148
43.8082323
42.4580209
41.2269307
40.0694009
38.9665306
37.9068288
36.8821467
35.886474
34.914817
33.9627225
33.0262824
32.1022386
31.1880459
30.2818751
29.3825635
28.4895362
27.602694
26.7222867
25.8487937
24.982812
24.1249621
23.2758175
65.4826172
57.3508745
51.9169564
49.0968894
47.0053195
45.2230887
43.7392954
42.4510489
41.2629567
40.1342487
39.0498262
38.0010816
36.9820351
35.9882632
35.0159189
34.0613812
33.1213497
32.1930074
31.2741139
30.3630259
29.4586637
28.56045
27.6682166
26.7821119
25.902515
25.0299532
24.16503
23.3083663
64.8835871
56.7928102
51.4576804
48.7466363
46.7534325
45.0579733
43.6471985
42.4165138
41.271902
40.1751747
39.1136368
38.0806929
37.0720032
36.0844398
35.1151632
34.161336
33.2202679
32.2896094
31.3674647
30.4524213
29.5435355
28.6402768
27.7424563
26.850168
25.9637308
25.0836373
24.2105066
23.3450392
64.4173015
56.3508537
51.0768567
48.440091
46.5204116
44.893372
43.5428753
42.3625085
41.2583969
40.1934999
39.1564647
38.1419648
37.1467746
36.1687034
35.2056869
34.2555247
33.3160435
32.3853032
31.4617142
30.5440812
29.6315922
28.7237736
27.8204465
26.9216904
26.0278123
25.1393238
24.2569157
23.3814265
64.0455908
55.9949567
50.7611321
48.175831
46.3106757
44.7370111
43.4355666
42.2980903
41.2302551
40.1953381
39.182622
38.187509
37.2074737
36.2409515
35.2864242
34.3421604
33.4063788
32.4774518
31.5540259
30.6350672
29.7198554
28.807958
27.8992076
26.9936884
26.091733
25.1939233
24.3010849
23.4142673
63.7446861
55.7049494
50.498672
47.9498497
46.125456
44.5935391
43.3319431
42.2306954
41.1947788
40.1873426
39.1978577
38.2220777
37.2578717
36.3040549
35.3594587
34.4226623
33.4921467
32.566491
31.6444901
30.7251975
29.8079296
28.8922578
27.9780062
27.0652639
26.1544105
25.2461424
24.341486
23.4417814
63.4987111
55.4667877
50.280141
47.7579122
45.9644686
44.4654634
43.2363493
42.1656597
41.1576355
40.1750778
39.2073769
38.2503828
37.3021366
36.3616438
35.4279227
34.4997224
33.5756623
32.6544211
31.7348443
30.8159891
29.8971394
28.9778146
28.0577916
27.1371476
26.2163174
25.2961471
24.3779256
23.4633743
63.2965885
55.2704736
50.0983175
47.5960272
45.8265203
44.3537683
43.1513417
42.1065378
41.1228964
40.1627831
39.2153607
38.2764128
37.3439965
36.417165
35.4949927
34.5762758
33.6596605
32.743816
31.8275357
30.9097865
29.9897329
29.0667655
28.1405533
27.2111223
26.2789509
25.3450583
24.4110614
23.4791699
63.130279
55.1086242
49.9475086
47.46058
45.7099713
44.2584852
43.0782451
42.0555598
41.0933518
40.1535411
39.2249964
38.3033399
37.3865414
36.4735984
35.5635378
34.6551028
33.7468629
32.8373707
31.925262
31.0093054
30.0884382
29.1618202
28.2289211
27.2896445
26.3444739
25.3946104
24.4420652
23.4896648
62.9937292
54.9755997
49.8231472
47.3483761
45.6130207
44.1790713
43.0175502
42.0139943
41.0708086
40.1494988
39.2386239
38.3335977
37.4322403
36.5334216
35.6360461
34.7387212
33.8398444
32.9377524
32.0308121
31.1174712
30.1963093
29.2661188
28.3260374
27.3757317
26.415612
25.4470422
24.4724892
23.4955531
62.882225
54.8669565
49.7214939
47.2566018
45.5338414
44.1146395
42.9691828
41.9824164
41.0563287
40.1520633
39.2578849
38.3689857
37.4830041
36.5986417
35.7146287
34.8293673
33.9410049
33.0475671
32.1470364
31.2374026
30.3167272
29.3832565
28.4356084
27.4730339
26.49573
25.505157
24.5042844
23.4976782
62.7919788
54.7790891
49.6394177
47.1827616
45.470642
44.0640975
42.9326825
41.9608961
41.0504045
40.162051
39.2838408
38.4107541
37.5402441
36.6708283
35.8010274
34.9289924
34.0525579
33.1693501
32.2768501
31.3724365
30.4534592
29.5173852
28.5620501
27.5860193
26.5890398
25.5725223
24.5399499
23.4970852
62.7198579
54.7089895
49.5742361
47.1246164
45.4216873
44.0262288
42.907318
41.9491257
41.0530812
40.1797942
39.3170552
38.4596641
37.6049081
36.7511211
35.8966054
35.0392394
34.1764993
33.3055382
32.4232208
31.5261474
30.6107257
29.6733445
28.710694
27.7202534
26.7009336
25.6538109
24.582811
23.4951559
62.6632016
54.6540835
49.5236012
47.0801286
45.3853009
43.9997373
42.8921586
41.9465029
41.0640396
40.2052108
39.3576494
38.5160245
37.6774882
36.8402162
36.0023131
35.1613885
34.3145427
33.4584035
32.5891165
31.7023302
30.793245
29.8567954
28.8880343
27.8827673
26.8384524
25.7553063
24.6374551
23.4938429
62.6196958
54.6121173
49.4854157
47.0474175
45.3598578
43.9832714
42.8861197
41.9521862
41.0826494
40.2378521
39.4053397
38.5797017
37.7580069
36.9383288
36.1186225
35.2962676
34.468008
33.6299307
32.7773895
31.9049197
31.0062254
30.0743312
29.1020013
28.0825233
27.0109292
25.8856422
24.7103951
23.4960247
62.5872873
54.581079
49.4577744
47.0247257
45.3437758
43.9754373
42.8879912
41.9651299
41.1080062
40.2769397
39.4594499
38.6501125
37.8459905
37.0451347
36.245434
35.4441204
34.6376531
33.8216215
32.9905724
32.1378098
31.2552599
30.3335191
29.3622338
28.330989
27.2308857
26.056928
24.8111516
23.5061073
62.5641265
54.5591465
49.4389246
47.0103957
45.3355102
43.9748094
42.8964571
41.9841112
41.1389685
40.321383
39.518916
38.7262147
37.9404294
37.1596948
36.3819558
35.6044327
34.8234421
34.0342058
33.2305468
32.4045167
31.5460508
30.642789
29.6802687
28.6427784
27.5152273
26.2864594
24.9541603
23.5314167
62.5485296
54.5446532
49.4272403
47.0028565
45.3335533
43.9799391
42.9101142
42.0077683
41.174179
40.3697932
39.5822967
38.8064967
38.039738
37.2803724
36.5265646
35.7757212
35.024246
34.2672429
33.4980477
32.7076174
31.8838583
31.0110337
30.0695042
29.0362184
27.886603
26.5988139
25.1611211
23.5838715
62.5389579
54.5360689
49.4212104
47.0006199
45.3364379
43.9893669
42.9275126
42.0346217
41.2120854
40.4205152
39.6477934
38.8889776
38.1417252
37.4047593
36.6766662
35.9553001
35.237483
34.5186025
33.7919612
33.0478699
32.2725169
31.4467152
30.544765
29.5339333
28.3755488
27.0295028
25.4644338
23.6798152
62.534009
54.5319922
49.4194359
47.0022822
45.3427495
44.0016628
42.947176
42.0630991
41.2509881
40.4716696
39.7132862
38.9712321
38.2435951
37.5296331
36.8285816
36.139057
35.4587299
34.7838432
34.1083962
33.4229176
32.7127732
31.955986
31.1206823
30.1626303
29.0239522
27.6353184
25.9258653
23.8597692
62.5324242
54.5311524
49.4206265
47.0065443
45.351158
44.0154464
42.9676242
42.091591
41.2890958
40.5212146
39.7763997
39.0504532
38.3419965
37.6509754
36.9775021
36.321295
35.6813727
35.0555607
34.4395797
33.8255582
33.1997583
32.5392443
31.807311
30.9477728
29.8794088
28.4920764
26.6528291
24.2382868
62.5330784
54.532416
49.423636
47.0122273
45.3604344
44.029406
42.9874305
42.11851
41.3245966
40.5670313
39.8346034
39.1235659
38.4331439
37.7640858
37.1175696
36.4947237
35.8964157
35.3228549
34.7727456
34.2417454
33.7198107
33.1867336
32.6048938
31.9076484
30.9833426
29.6547613
27.692684
24.7972274
62.5349788
54.5348066
49.4274757
47.0182828
45.3694721
44.0423496
43.0052763
42.1423589
41.3557457
40.6070354
39.8853508
39.1873993
38.5130262
37.863827
37.2421432
36.6507094
36.0926173
35.5711566
35.0892828
34.6484437
34.2462417
33.8719136
33.4973979
33.0591087
32.421105
31.3021763
29.2143252
25.1477429
62.5373071
54.5375194
49.43131
47.0238276
45.3773308
44.0532499
43.0200073
42.1618058
41.3809647
40.639307
39.9262518
39.2389145
38.5777079
37.9450191
37.3443068
36.7799004
36.2571956
35.7828518
35.3648176
35.0120338
34.7335047
34.536033
34.4184895
34.3575511
34.2719098
33.93118
32.6296121
27.4338421
72.3474076
61.9053034
54.6695971
50.841093
48.0363443
45.728797
43.8917187
42.3770504
41.0494879
39.8405472
38.7150028
37.6501846
36.6306998
35.6458975
34.6879106
33.7506105
32.829177
31.9199089
31.0201103
30.1279847
29.2425092
28.3632868
27.4903843
26.6241679
25.7651545
24.9138857
24.0708344
23.2363521
64.6276923
59.2334401
54.3125451
51.0386759
48.3678957
46.0550795
44.1602268
42.5886151
41.2154971
39.971114
38.8191426
37.7350079
36.7011486
35.7053848
34.7388919
33.7948698
32.8679834
31.954133
31.0503181
30.1545196
29.2655713
28.3830059
27.5068805
26.6375931
25.7757154
24.9218529
24.07654
23.2401705
61.3873452
57.8841894
53.8913097
50.8211462
48.2868952
46.0789782
44.2251881
42.6631898
41.2902937
40.0421298
38.8847523
37.7952186
36.7565061
35.7564695
34.7862148
33.8388332
32.908861
31.9920781
31.0853831
30.1866786
29.2947448
28.4090864
27.5297587
26.6571855
25.7919838
24.9348186
24.0862904
23.2468631
59.8109142
56.7283025
53.2148191
50.4249495
48.0800092
46.0125692
44.2427868
42.7240689
41.372476
40.1328993
38.9764441
37.8838296
36.8402824
35.8348012
34.8590518
33.9063871
32.9714373
32.0499868
31.1388933
30.2359934
29.3399848
28.4502843
27.566866
26.6900911
25.8205435
24.9588873
24.1057564
23.2616762
58.7050356
55.7292094
52.5302975
50.0108767
47.8398703
45.8962311
44.2150334
42.7542377
41.4385382
40.2200432
39.0744584
37.9858779
36.942048
35.9336744
34.9535303
33.9956878
33.0552378
32.128246
31.211725
30.3035703
29.4024635
28.5077502
27.6193011
26.7373669
25.8624392
24.9951271
24.1360575
23.2858017
57.8977002
54.9842049
51.9642645
49.6232283
47.5827425
45.7412884
44.1422249
42.7425159
41.4698719
40.2810382
39.1550811
38.0785207
37.0411047
36.0351331
35.0545781
34.0944038
33.1503648
32.2190086
31.2976793
30.3844752
29.4781714
28.5781185
27.6841283
26.7963602
25.9152141
25.0412367
24.1750425
23.3172523
57.2905761
54.4126724
51.4925134
49.2683256
47.3286569
45.5721485
44.0444306
42.7014454
41.4720185
40.3155451
39.2133302
38.1535637
37.1274104
36.1283852
35.1514507
34.1923675
33.2475299
32.3139889
31.3894643
30.4723124
29.5614604
28.6563203
27.7566974
26.8627055
25.9746919
25.0931747
24.218788
23.3522343
56.8173035
53.9598424
51.1005397
48.9560438
47.0929558
45.404577
43.9361658
42.6428316
41.4535357
40.3288882
39.2515211
38.2107277
37.198632
36.2096026
35.2393385
34.2842238
33.3411761
32.4076734
31.4817662
30.5620465
29.6475894
28.7378802
27.8327439
26.9322851
26.0368435
25.1469593
24.2633394
23.3868245
56.4399062
53.5957817
50.7763412
48.6869253
46.880836
45.2461439
43.8264375
42.5756965
41.4224697
40.3277373
39.2748042
38.2536333
37.2569672
36.2797467
35.3181878
34.3691291
33.4298783
32.4982357
31.572501
30.6514414
29.7342392
28.8204317
27.909861
27.0026396
26.0991348
25.1999547
24.3059391
23.4181415
56.1345411
53.2996536
50.5074536
48.4569566
46.6935486
45.1011968
43.7214062
42.5068686
41.3855069
40.3182307
39.2885779
38.2868478
37.3061395
36.3417452
35.3902138
34.4486849
33.5147269
32.5863515
31.6620138
30.7405803
29.8212815
28.9036657
27.9875702
27.0731133
26.1607055
25.2510687
24.3452459
23.4445803
55.8851012
53.0568375
50.2840064
48.2618374
46.5308609
44.9720573
43.6249947
42.4411256
41.3476936
40.3053157
39.2974879
38.3146059
37.3499252
36.3989151
35.4583029
34.5253932
33.5978925
32.6739119
31.7519634
30.8309261
29.9100044
28.9886991
28.0668019
27.14442
26.2220191
25.3004693
24.3810721
23.4655502
55.6802896
52.8569413
50.0983862
48.0974301
46.3915232
44.8595488
43.5394751
42.3816629
41.3126985
40.292813
39.3053074
38.3405172
37.3917092
36.4543959
35.5253571
34.6019441
33.6818866
32.7632876
31.8446118
30.9246523
30.0024974
29.0775217
28.149412
27.2182242
26.2844649
25.3491734
24.4139761
23.4810841
55.5118821
52.6922938
49.9445959
47.959961
46.2738241
44.7636072
43.4660223
42.3305185
41.2830916
40.2835686
39.3149855
38.3675241
37.434365
36.5109648
35.5940572
34.6809377
33.7692577
32.8570071
31.9424949
31.0243158
30.1013341
29.1726967
28.2378912
27.2968488
26.3500777
25.3987951
24.445019
23.4915796
55.3736764
52.5570448
49.8178477
47.8461101
46.1759073
44.6836382
43.4050515
42.2888634
41.2605663
40.2796074
39.3287376
38.3979389
37.4802455
36.5709909
35.6667856
34.7647871
33.862479
32.9576355
32.0482953
31.1327353
30.2094638
29.277261
28.3352809
27.3832144
26.4214928
25.4514911
24.4756796
23.4976637
55.2608429
52.4465985
49.7142444
47.7529692
46.0959029
44.6187234
43.3564502
42.2572256
41.2461307
40.2822783
39.3481464
38.4335038
37.5312094
36.6364303
35.745601
34.8556791
33.9638993
33.0677236
32.1648078
31.2529725
30.3302093
29.3947515
28.4452312
27.4809196
26.5020292
25.510025
24.5078763
23.5001544
55.1695065
52.3572389
49.6305413
47.6779721
46.0319861
44.5677511
43.3197395
42.2356545
41.2402539
40.2923733
39.3742489
38.4754479
37.5886472
36.7088287
35.8322244
34.9555447
34.0757103
33.1897844
32.2949239
31.38834
30.4673129
29.5292964
28.5721373
27.5944172
26.5958913
25.5779657
24.5441181
23.5001129
55.096469
52.2858779
49.5639747
47.6188283
45.9823975
44.5294922
43.2941792
42.223834
41.2429729
40.310216
39.4076031
38.524527
37.6534965
36.7893186
35.9280145
35.0660214
34.199902
33.3262492
32.4416057
31.5424063
30.6249904
29.6857334
28.7213349
27.7292856
26.7084954
25.6600228
24.5877792
23.4989778
55.0390217
52.2298837
49.5121378
47.5734624
45.9454425
44.5026426
43.278835
42.22116
41.2539673
40.3357264
39.4483327
38.5810448
37.7262467
36.8785982
36.0339232
35.1883904
34.3381898
33.4793917
32.6078228
31.7189691
30.8079655
29.8697344
28.8993376
27.8925876
26.8469291
25.7625474
24.6435351
23.4988035
54.9948157
52.1869611
49.4728918
47.539967
45.919483
44.4858449
43.2726205
42.2267918
41.2726115
40.3684618
39.4961495
38.6448663
37.8069259
36.976887
36.1504253
35.3234831
34.4918973
33.6512008
32.7964325
31.9219699
31.0214567
30.0879097
29.1141035
28.0933278
27.0205867
25.8942574
24.7180069
23.5025983
54.9617741
52.1550696
49.4443027
47.5165664
45.9029283
44.4777024
43.2743259
42.2396889
41.2980088
40.4076383
39.5503752
38.7154142
37.8950642
37.0838631
36.2774247
35.4715473
34.6617866
33.8431824
33.0099724
32.1553098
31.2710686
30.3478452
29.3753018
28.3430218
27.2420622
26.0673543
24.8208018
23.5148216
54.9380312
52.1323677
49.4245984
47.5015908
45.8942281
44.4767883
43.28264
42.2586376
41.3290106
40.4521609
39.6099511
38.7916493
37.9896534
37.1985898
36.4141326
35.6320722
34.8478257
34.0560711
33.2503298
32.4225127
31.5625142
30.6579862
29.69449
28.6563128
27.5283181
26.2992465
24.9665107
23.5429429
54.9218941
52.1171768
49.4121413
47.4934624
45.8918724
44.4816578
43.29617
42.2822656
41.3642521
40.5006455
39.6734376
38.8720599
38.0891087
37.319432
36.5589279
35.803577
35.0488889
34.2894304
33.5182457
32.7261637
31.9010637
31.0272331
30.085058
29.0514761
27.9018344
26.6141973
25.1764582
23.5989161
54.9118199
52.1079608
49.4054146
47.4906909
45.8943975
44.490862
43.3134537
42.3090838
41.4021859
40.5514373
39.7390347
38.9546646
38.1912393
37.4439822
36.7092174
35.9833778
35.2623971
34.5411347
33.812614
33.0670324
32.2905668
31.4640611
30.5618247
29.5510356
28.3926833
27.0462674
25.4793632
23.6927822
54.9064042
52.1033166
49.403018
47.4918777
45.9003956
44.50296
43.3330019
42.3375256
41.4411122
40.6026558
39.8046218
39.0370376
38.2932485
37.5690172
36.8613215
36.1673623
35.4839291
34.8067482
34.1295537
33.4427775
32.7317865
31.9746329
31.1394247
30.1816749
29.0428453
27.6524397
25.934609
23.8546051
54.9043783
52.1019723
49.4036708
47.4957244
45.9085293
44.5165579
43.3533411
42.3659818
41.4792388
40.6522578
39.867822
39.1163694
38.3917823
37.6905152
37.0104284
36.3498311
35.7068715
35.0788721
34.4613075
33.8462251
33.2198839
32.559313
31.8275366
30.9676559
29.8975663
28.5061677
26.6522163
24.2192981
54.90462
52.1027985
49.4062256
47.5010472
45.917562
44.5303496
43.3730476
42.3928659
41.5147534
40.6981234
39.9261023
39.1895818
38.4830506
37.8037706
37.1506737
36.5234878
35.9222235
35.3466093
34.7951341
34.2634068
33.7413838
33.2086485
32.6265219
31.9256023
30.9894071
29.6301182
27.6092154
24.6641184
54.9061697
52.1048295
49.4096879
47.5068015
45.9263927
44.5431484
43.3908055
42.4166817
41.5459112
40.7381667
39.9769133
39.2534992
38.5630362
37.9036376
37.2754053
36.6796836
36.1187253
35.5953723
35.1124212
34.6713674
34.2699559
33.8972093
33.5236186
33.0806278
32.4190398
31.2099546
28.9014138
24.3026411
54.908235
52.1072664
49.4132281
47.5121107
45.9340867
44.553931
43.4054633
42.4360987
41.5711334
40.7704659
40.0178613
39.3050778
38.6277965
37.9849264
37.3776921
36.8090433
36.2835568
35.8074835
35.388693
35.0363457
34.7599048
34.5665393
34.4552181
34.4014433
34.317858
33.9353708
32.4720768
26.0944097
69.4302394
60.6217966
54.1840117
50.5795941
47.9030008
45.6700614
43.8613922
42.3547353
41.0269351
39.8143232
38.6847052
37.616873
36.5958465
35.6109279
34.6539681
33.7184394
32.7991163
31.8919673
30.9940793
30.1035577
29.2193853
28.3412432
27.4693126
26.6040786
25.7461556
24.896148
24.0545531
23.2217076
61.6740134
58.1693803
54.1484715
51.0243111
48.4295506
46.1663173
44.2662968
42.6686499
41.2701748
40.0046202
38.8360663
37.7400056
36.6982199
35.697634
34.7286123
33.7836345
32.8567326
31.9432949
31.0399554
30.1444806
29.2556246
28.3729442
27.4965862
26.6270678
25.7650764
24.9113069
24.0663442
23.230595
58.4314726
56.9363292
53.9391218
51.0014929
48.5131925
46.3359586
44.4456429
42.8225989
41.3988742
40.1134853
38.929001
37.8204048
36.7689123
35.7606864
34.7855109
33.8354638
32.9042532
31.9869924
31.0800909
30.1811419
29.2887784
28.4024903
27.5224099
26.6490855
25.783268
24.9257337
24.0771541
23.2380173
56.8754909
55.8137324
53.3315627
50.6941546
48.3989581
46.3615425
44.5450187
42.9482708
41.5302883
40.2419572
39.049873
37.9317792
36.8706518
35.8533385
34.8698258
33.9122589
32.974335
32.051089
31.1388068
30.2349308
29.3379312
28.4471405
27.5625578
26.6846372
25.8140837
24.9516747
24.0981254
23.2539993
55.772753
54.8125323
52.6638153
50.3216237
48.2076811
46.2920988
44.5595093
43.0138011
41.6246619
40.3519669
39.166881
38.0499725
36.986358
35.9643231
34.9747842
34.0105499
33.0658022
32.1358982
31.2173003
30.3075012
29.4049191
28.508762
27.6188674
26.7355284
25.8593214
24.9909502
24.1311203
23.2804498
54.9606731
54.0601665
52.0991086
49.9493577
47.9701352
46.1550409
44.5029255
43.0163381
41.6677117
40.4225521
39.2557859
38.1501752
37.0925604
36.072626
35.0823485
34.115367
33.1665418
32.2317694
31.3079048
30.3926872
29.4846433
28.5829732
27.6874237
26.7981555
25.9156143
25.0404122
24.1732278
23.3147276
54.3467909
53.4795127
51.6203882
49.5947072
47.7201186
45.9902576
44.4095299
42.9796538
41.6736896
40.4602095
39.3167818
38.2278525
37.181577
36.1687644
35.1822915
34.2165207
33.2669233
32.3299126
31.4027561
30.4834912
29.5708261
28.6640347
27.7628506
26.8673683
25.9779532
25.0951624
24.2196749
23.3522321
53.8664864
53.0174294
51.2192476
49.277433
47.4825479
45.8216361
44.3006206
42.9209108
41.6553242
40.4736835
39.3551175
38.2852589
37.2532146
36.2506297
35.2710859
34.3095257
33.3619112
32.4250723
31.4966161
30.5748354
29.6586076
28.7472949
27.8406547
26.938766
26.0419718
25.1508327
24.2660857
23.3886014
53.4826999
52.6452268
50.8864646
49.0021065
47.2663272
45.6599147
44.1881843
42.8517976
41.6228623
40.4714785
39.3775685
38.3275199
37.3110853
36.3204965
35.3498564
34.3945502
33.4509125
32.5160842
31.5879206
30.664896
29.7460052
28.8306715
27.9186739
27.0100972
26.1053035
25.2049127
24.3097855
23.4209949
53.1719031
52.3422975
50.6101822
48.7660865
47.0743825
45.5110596
44.0799098
42.7804959
41.5840845
40.4606079
39.3902809
38.3598922
37.3595847
36.381967
35.4214918
34.47385
33.5356324
32.6041858
31.6775196
30.7542094
29.8333025
28.9142369
27.996789
27.0810485
26.1674183
25.2566242
24.3497177
23.4480554
52.9179828
52.0939204
50.3806045
48.5656424
46.9073082
45.3781559
43.980361
42.7123213
41.5444618
40.4463419
39.3981598
38.3868434
37.402723
36.4386102
35.4891565
34.550228
33.6185557
32.6915863
31.7673854
30.8445423
29.9220803
28.9993922
28.0762101
27.1526104
26.2290458
25.3063839
24.3859305
23.4694173
52.7095244
51.8895202
50.1899912
48.3967523
46.7641199
45.2622774
43.892015
42.6506482
41.5078097
40.4326068
39.4050529
38.4120424
37.4439433
36.4936338
35.5558371
34.6264774
33.7023154
32.7807915
31.8599245
30.9382181
30.0145806
29.0882796
28.1589415
27.2265907
26.2917176
25.3553547
24.4191267
23.4852474
52.5381571
51.7212247
50.0321454
48.2555659
46.6431331
45.163409
43.8160895
42.5975557
41.4767315
40.4222671
39.4139131
38.4384282
37.4861141
36.5498137
35.6242206
34.7052159
33.7894888
32.8743686
31.9577196
31.0378469
30.1134351
29.1835243
28.2475417
27.3053848
26.3575428
25.4052218
24.4504328
23.4960034
52.3975382
51.5830014
49.9020844
48.1386352
46.5424323
45.0809232
43.7529732
42.554195
41.4529059
40.4173312
39.4269365
38.4682915
37.5315668
36.6094987
35.6966738
34.7888468
33.8825448
32.9748842
32.0634605
31.1462607
30.2216124
29.2881888
28.3450833
27.3919509
26.4291991
25.4581862
24.4813691
23.5023457
52.2827181
51.4701037
49.7957444
48.0429219
46.4600614
45.0138382
43.7025021
42.5210548
41.4373111
40.4191239
39.4456831
38.5033525
37.5821379
36.6746246
35.7752382
34.8795423
33.9838199
33.0848801
32.1799348
31.2665154
30.3424334
29.4058143
28.455226
27.4898983
26.5100133
25.5170124
24.5138446
23.5050702
52.1897243
51.3786954
49.7097469
47.9657471
46.3941112
44.9609759
43.6641443
42.4981439
41.4303864
40.4284134
39.4711698
38.5448209
37.6392004
36.7467228
35.8616214
34.9792187
34.0954923
33.2068549
32.3100215
31.4019147
30.4796341
29.5405222
28.5823556
27.6036664
26.60417
25.5852391
24.5503217
23.5051697
52.1152834
51.3055964
49.641224
47.9047282
46.3427488
44.921048
43.6371121
42.4851101
41.4321423
40.4455035
39.5039374
38.5934381
37.7036814
36.8269147
35.9571681
35.0895018
34.2195418
33.3432324
32.456677
31.5560223
30.637425
29.6971438
28.7317993
27.7388194
26.7170586
25.6675257
24.5940883
23.5039488
52.0566288
51.2481048
49.5876905
47.857719
46.3042215
44.892702
43.6204321
42.4813201
41.4422366
40.4702968
39.5440961
38.6495005
37.776062
36.9158875
36.0628223
35.2116678
34.3576794
33.4962833
32.6228694
31.7326363
30.8205323
29.8813551
28.9100723
27.9024115
26.8557342
25.7701448
24.6496694
23.5032161
52.0113693
51.2038743
49.5469501
47.8227596
46.2768468
44.8745437
43.6129884
42.4859103
41.460026
40.5023372
39.5913526
38.7128658
37.8563613
37.013857
36.1790596
35.3465474
34.5112288
33.6679985
32.8114618
31.9357089
31.0341914
30.0997878
29.1251527
28.1034509
27.0295494
25.9016817
24.7234064
23.5055071
51.9773971
51.1708274
49.5170274
47.7980359
46.2590017
44.8651493
43.6135494
42.4978227
41.4846002
40.5408374
39.6450223
38.7829507
37.9441103
37.1205051
36.305784
35.4943893
34.6809565
33.8598934
33.0250089
32.1691692
31.2840489
30.360084
29.386772
28.353498
27.2510711
26.074145
24.8244025
23.5143113
51.9528253
51.147097
49.4961223
47.7818534
46.2491148
44.8630742
43.6207884
42.5158306
41.5148086
40.5846974
39.7040435
38.8587202
38.0383059
37.234896
36.4422088
35.6546886
34.8668412
34.072722
33.2654317
32.4365973
31.5759047
30.6708119
29.7066405
28.6673446
27.5373234
26.3047712
24.9665826
23.5355736
51.9359473
51.130988
49.48258
47.7726192
46.2456634
44.8668621
43.6333029
42.5385629
41.5492852
40.6325344
39.7669847
38.938669
38.1373655
37.3553984
36.5867198
35.8259752
35.0677757
34.3060812
33.5335309
32.7406808
31.9151963
31.0411242
30.0984861
29.0636325
27.9110218
26.6176289
25.1702186
23.5790559
51.9252121
51.1209546
49.4748743
47.7688355
46.2471765
44.8750589
43.6496348
42.5645344
41.5864882
40.6827056
39.8320534
39.0208203
38.2391043
37.4796124
36.7367337
36.0055805
35.2812084
34.5578957
33.8282933
33.0823583
32.3060687
31.4799864
30.5778786
29.5658959
28.4032305
27.0467914
25.4611551
23.6472191
51.9192124
51.1155905
49.4716025
47.7691015
46.2522461
44.8862316
43.6683058
42.5921878
41.6247329
40.7333386
39.8971359
39.1027561
38.3407341
37.6043242
36.888583
36.1894114
35.5027518
34.8237949
34.1459662
33.4595359
32.7497472
31.9943903
31.1608872
30.2032159
29.0595081
27.6537132
25.900701
23.7615477
51.9166831
51.113628
49.4714883
47.7721222
46.2595454
44.8990014
43.6878542
42.6199309
41.662237
40.7824005
39.9598662
39.181678
38.4389115
37.725523
37.0374688
36.3717873
35.7258265
35.0964509
34.4789452
33.8653661
33.2420589
32.5859756
31.8594967
31.0035877
29.9311593
28.5227927
26.6195518
24.0951199
51.916504
51.1139441
49.4733899
47.7767255
46.267855
44.9120756
43.7068714
42.6461893
41.6972014
40.8277848
40.0177244
39.2545197
38.5298578
37.8385134
37.1775363
36.5454219
35.9414497
35.3650115
34.814617
34.2862293
33.7704123
33.2473628
32.6783218
31.9908899
31.0603214
29.6807139
27.5853631
24.5088381
51.9177118
51.115565
49.4763152
47.7818839
46.2760885
44.9242794
43.7240551
42.6694812
41.7278955
40.8674191
40.068174
39.318118
38.6095663
37.9381574
37.3021355
36.7016591
36.1383391
35.6148514
35.1343389
34.6992599
34.3090875
33.9554686
33.6117141
33.2093068
32.5900979
31.376558
28.9189747
23.7725586
51.9195127
51.1176836
49.4794406
47.7867354
46.2833226
44.9346014
43.7382671
42.68849
41.7527542
40.8993956
40.1088346
39.3694409
38.6741037
38.0192689
37.4043277
36.8310924
36.3035952
35.8281195
35.4132859
35.0700466
34.8113625
34.6506819
34.5972785
34.6423979
34.7182333
34.5349599
33.1664967
25.7074207
68.2041738
59.8102347
53.7797657
50.3842058
47.8313416
45.6723367
43.8939499
42.3922716
41.0581787
39.8348177
38.6936852
37.6155781
36.5863539
35.5954913
34.6346556
33.6969278
32.7766036
31.8691827
30.9713647
30.0809901
29.196909
28.3187854
27.4468658
26.5817424
25.7241421
24.8747586
24.0341388
23.2026239
60.4980199
57.4006021
53.8160988
50.9080929
48.4332008
46.2430322
44.3663824
42.7624025
41.347795
40.0640627
38.8781429
37.7672227
36.713719
35.7044366
34.7293346
33.7803883
32.8510767
31.9362452
31.0320589
30.135934
29.2464123
28.3629696
27.4857761
26.6154395
25.7527654
24.8985595
24.0534875
23.2179953
57.2783521
56.2044352
53.6838113
50.9839082
48.6182017
46.5123564
44.6340185
42.9860615
41.5291133
40.2128108
39.0015712
37.8711708
36.8029338
35.7823582
34.7983785
33.8423076
32.9071469
31.9873471
31.0787401
30.1784697
29.2848714
28.3972897
27.5158407
26.6411478
25.7740847
24.9155565
24.066338
23.2269774
55.7495768
55.1189787
53.1251721
50.7348946
48.5676448
46.6046344
44.7971639
43.1666503
41.7053468
40.3774469
39.1514924
38.0058173
36.9234472
35.8903408
34.8953344
33.9296026
32.9860314
32.0589308
31.1439526
30.2380264
29.3392528
28.4467451
27.5604213
26.6807634
25.8085722
24.9447481
24.0901182
23.2453234
54.6631633
54.1370033
52.4812174
50.3931714
48.4115442
46.5713861
44.8461975
43.2625215
41.8248983
40.5081143
39.285643
38.1384648
37.0515826
36.0122122
35.0099211
34.0364205
33.0850467
32.1504496
31.2284847
30.316144
29.4114616
28.513385
27.6216139
26.7364111
25.8584013
24.9883809
24.1271579
23.275435
53.8576132
53.3928734
51.9277955
50.0366646
48.1919526
46.4519956
44.8061057
43.2795288
41.879757
40.5880699
39.3821584
38.2451373
37.1635697
36.1259239
35.1226761
34.1462464
33.1905931
32.2509064
31.3234678
30.4055542
29.4953326
28.5917429
27.69437
26.8033045
25.918996
25.0421113
24.1734066
23.3136254
53.2452636
52.8150505
51.4531415
49.6880658
47.9492769
46.294638
44.7197797
43.2491652
41.8908397
40.6295708
39.4460624
38.3251586
37.2546643
36.2241012
35.2247644
34.2497075
33.293433
32.3516181
31.4209591
30.4990523
29.5842718
28.6756481
27.7727548
26.8756015
25.9845321
25.1001279
24.2231198
23.3543099
52.7640481
52.3527854
51.0521184
49.3718218
47.7136753
46.1282807
44.613102
43.192455
41.8740648
40.6440939
39.4850238
38.3829523
37.3266102
36.3063263
35.3140689
34.3434275
33.38935
32.4478998
31.5160996
30.5918035
29.6735669
28.7605234
27.8522802
26.9488322
26.0504914
25.1578266
24.2716077
23.3927507
52.3783508
51.9790849
50.7177995
49.0953166
47.4968193
45.9661866
44.5004166
43.1231933
41.8414422
40.6416143
39.5070961
38.4247986
37.3840948
36.3758903
35.392667
34.4284415
33.4785136
32.5392385
31.6078751
30.6824558
29.7616565
28.8446796
27.9311616
27.0211073
26.114846
25.2129988
24.3164496
23.4263052
52.0654104
51.6742539
50.4394319
48.8572474
47.3030823
45.8157542
44.3907779
43.0507693
41.8017268
40.6299073
39.5190421
38.4564817
37.4319942
36.4368604
35.4639139
34.5074751
33.5630923
32.6273179
31.6975588
30.7719458
29.8492086
28.9285682
28.0096628
27.0925049
26.1774648
25.2652656
24.3569752
23.4539776
51.8094594
51.4239883
50.2077341
48.6545731
47.133869
45.680867
44.2894678
42.9811063
41.7608653
40.6145949
39.5260281
38.4826747
37.4744949
36.4929752
35.531153
34.5835271
33.645785
32.7145763
31.7873616
30.8622842
29.9380515
29.0138421
28.0892526
27.1642834
26.2393533
25.3153239
24.3935135
23.475677
51.5992128
51.2178863
50.0151887
48.4835842
46.9885747
45.5629749
44.1993009
42.9178706
41.7229061
40.5997718
39.5320173
38.5071264