/*--------------------------------*- C++ -*----------------------------------*\
| =========                 |                                                 |
| \\      /  F ield         | foam-extend: Open Source CFD                    |
|  \\    /   O peration     | Version:     4.1                                |
|   \\  /    A nd           | Web:         http://www.foam-extend.org         |
|    \\/     M anipulation  |                                                 |
\*---------------------------------------------------------------------------*/
FoamFile
{
    version     2.0;
    format      ascii;
    class       surfaceScalarField;
    location    "0.1";
    object      phi;
}
// * * * * * * * * * * * * * * * * * * * * * * * * * * * * * * * * * * * * * //

dimensions      [0 3 -1 0 0 0 0];

internalField   nonuniform List<scalar> 
102656
(
0.000395261068
5.30266546e-05
5.17122776e-05
0.000281609919
5.82610446e-05
5.53901035e-05
0.000200388934
4.23595592e-05
3.88614254e-05
0.0001488909
2.7447504e-05
2.40505294e-05
0.000117043165
1.73739764e-05
1.44737587e-05
9.6823975e-05
1.12265802e-05
8.99261008e-06
8.35550675e-05
7.39906201e-06
5.86984551e-06
7.46384157e-05
4.89592177e-06
4.02073013e-06
6.84646434e-05
3.24824877e-06
2.92552384e-06
6.40218071e-05
2.16578116e-06
2.27705514e-06
6.07035726e-05
1.44371905e-06
1.87451571e-06
5.81484522e-05
9.52430048e-07
1.60269031e-06
5.61332048e-05
6.1338949e-07
1.40185768e-06
5.45139352e-05
3.77093931e-07
1.24217532e-06
5.31931827e-05
2.11168148e-07
1.10958374e-06
5.21010097e-05
9.40654532e-08
9.98106857e-07
5.1184582e-05
1.1247116e-08
9.0517983e-07
5.04028936e-05
-4.72484105e-08
8.28936243e-07
4.97240199e-05
-8.81486967e-08
7.67022017e-07
4.91233873e-05
-1.15716721e-07
7.16349022e-07
4.85826182e-05
-1.32516092e-07
6.73284955e-07
4.80885812e-05
-1.40092965e-07
6.34129887e-07
4.76324071e-05
-1.39456828e-07
5.95631072e-07
4.72084285e-05
-1.31375417e-07
5.55354082e-07
4.68131381e-05
-1.1658145e-07
5.11871922e-07
4.64442419e-05
-9.58809073e-08
4.64777129e-07
4.60998745e-05
-7.02068522e-08
4.14574301e-07
-4.05984021e-08
3.62439619e-07
4.57780332e-05
0.000461998928
2.77115823e-05
6.33161441e-05
0.000392853737
5.22453472e-05
7.51608877e-05
0.000323887348
5.01970694e-05
6.11288783e-05
0.000266759945
4.04811698e-05
4.40937364e-05
0.000223838925
3.04894986e-05
2.98054985e-05
0.000193120914
2.23551689e-05
1.95894225e-05
0.000171279009
1.62949412e-05
1.29460253e-05
0.000155532608
1.1852366e-05
8.78995749e-06
0.000143949192
8.60076211e-06
6.23090226e-06
0.000135222364
6.23372006e-06
4.65888857e-06
0.000128485151
4.51255162e-06
3.66837945e-06
0.000123169257
3.25694483e-06
3.01137833e-06
0.000118896215
2.33788006e-06
2.54855122e-06
0.000115405959
1.66331821e-06
2.20403131e-06
0.000112513756
1.16641953e-06
1.93695112e-06
0.000110084187
7.97842991e-07
1.72579212e-06
0.000108015542
5.20801049e-07
1.55909132e-06
0.0001062304
3.0815375e-07
1.42973936e-06
0.000104669862
1.40702238e-07
1.33168736e-06
0.000103289884
5.90511914e-09
1.25835555e-06
0.000102058504
-1.03418252e-07
1.2022811e-06
0.000100953145
-1.90360279e-07
1.1556256e-06
9.99580041e-05
-2.5534164e-07
1.11102412e-06
9.90618433e-05
-2.97561053e-07
1.062345e-06
9.82560423e-05
-3.16048954e-07
1.00526711e-06
9.7533018e-05
-3.10402562e-07
9.37544768e-07
9.68850843e-05
-2.8119979e-07
8.58925673e-07
-2.30163841e-07
7.7086449e-07
9.63037844e-05
0.000447769598
1.52548347e-05
6.46871489e-05
0.000388238294
3.58418141e-05
7.59348369e-05
0.000335581519
4.06662089e-05
6.21876348e-05
0.000291762247
3.76306164e-05
4.66698253e-05
0.000257078913
3.18651548e-05
3.33076774e-05
0.000230706016
2.56763512e-05
2.30517145e-05
0.000210905992
2.01503096e-05
1.59446555e-05
0.000195890501
1.55912693e-05
1.12765873e-05
0.000184278394
1.19496075e-05
8.26326203e-06
0.000175105875
9.09161105e-06
6.3146281e-06
0.000167721108
6.87449498e-06
5.02282392e-06
0.000161683724
5.16764553e-06
4.12668317e-06
0.000156687152
3.8614081e-06
3.47304497e-06
0.000152508142
2.86650911e-06
2.97582028e-06
0.000148977639
2.11024955e-06
2.58667241e-06
0.000145964221
1.53310531e-06
2.27815535e-06
0.000143364449
1.08653298e-06
2.0340392e-06
0.000141097089
7.31992254e-07
1.84351908e-06
0.000139099303
4.40673775e-07
1.69781272e-06
0.000137323656
1.93216674e-07
1.58833266e-06
0.000135735318
-2.10831398e-08
1.50600066e-06
0.000134309483
-2.05828262e-07
1.44129994e-06
0.000133028805
-3.59571822e-07
1.38490614e-06
0.000131880759
-4.78061123e-07
1.32854475e-06
0.000130855385
-5.5638047e-07
1.26570398e-06
0.000129943466
-5.90610363e-07
1.19212656e-06
0.000129135233
-5.78912388e-07
1.10594546e-06
-5.22048956e-07
1.00748255e-06
0.000128419635
0.000440472389
9.95941505e-06
6.48230304e-05
0.000375873698
2.46432377e-05
7.57972663e-05
0.000324700769
3.07154238e-05
6.11237135e-05
0.000286197877
3.08540354e-05
4.52794729e-05
0.000257840127
2.8105862e-05
3.21170436e-05
0.00023717224
2.4178758e-05
2.21654804e-05
0.000221923606
2.00691114e-05
1.53298328e-05
0.000210326657
1.62971876e-05
1.08910306e-05
0.000201180931
1.30386144e-05
8.05671909e-06
0.000193727966
1.03067251e-05
6.23784934e-06
0.000187505737
8.05882214e-06
5.03790008e-06
0.000182232333
6.23551155e-06
4.20553531e-06
0.000177724741
4.77502439e-06
3.59397296e-06
0.000173850833
3.61811281e-06
3.12230269e-06
0.000170505416
2.70909531e-06
2.74657033e-06
0.000167599893
1.99614678e-06
2.44248181e-06
0.000165058509
1.43212347e-06
2.19579467e-06
0.000162817349
9.76114609e-07
1.99703906e-06
0.000160824068
5.95263775e-07
1.8386931e-06
0.00015903741
2.6615985e-07
1.71371624e-06
0.000157426233
-2.47756169e-08
1.61487088e-06
0.000155967999
-2.82166836e-07
1.53457288e-06
0.000154646892
-5.03614546e-07
1.46514941e-06
0.000153451749
-6.82292769e-07
1.39937415e-06
0.000152374046
-8.09752884e-07
1.33107375e-06
0.000151406132
-8.78367046e-07
1.25566884e-06
0.000150539883
-8.83135699e-07
1.17047003e-06
-8.22753142e-07
1.07472152e-06
0.000149765863
0.000437877842
7.06326985e-06
6.50183024e-05
0.000368456324
1.77997359e-05
7.62650191e-05
0.000314729086
2.34025473e-05
6.10401145e-05
0.000276412506
2.47845933e-05
4.43860213e-05
0.000250110502
2.36878821e-05
3.07199835e-05
0.000232362791
2.13211924e-05
2.06052761e-05
0.000220170834
1.8448834e-05
1.38122342e-05
0.000211393723
1.55518856e-05
9.52241325e-06
0.000204685665
1.28686932e-05
6.87797991e-06
0.000199257933
1.04851181e-05
5.24933955e-06
0.000194675591
8.4186145e-06
4.22254965e-06
0.000190710137
6.65931285e-06
3.54165271e-06
0.000187239908
5.18555173e-06
3.0597021e-06
0.000184191404
3.96944801e-06
2.69716804e-06
0.000181509784
2.97876165e-06
2.41195285e-06
0.000179146542
2.17802413e-06
2.18136289e-06
0.00017705604
1.53034915e-06
1.99227448e-06
0.000175195883
1.00015448e-06
1.83611535e-06
0.000173528371
5.56274555e-07
1.70649847e-06
0.000172021722
1.74680719e-07
1.59812577e-06
0.000170650624
-1.59908902e-07
1.50622827e-06
0.000169395982
-4.53811763e-07
1.4262844e-06
0.000168244021
-7.05556947e-07
1.35390026e-06
0.000167185073
-9.08208465e-07
1.2848609e-06
0.000166212151
-1.05219784e-06
1.21536557e-06
0.000165319538
-1.12809586e-06
1.14234003e-06
0.000164501606
-1.12890625e-06
1.06370137e-06
-1.05162719e-06
9.78511158e-07
0.000163751968
0.000436605797
5.27656941e-06
6.51809028e-05
0.000364322915
1.34341053e-05
7.66485124e-05
0.000308252693
1.82397999e-05
6.12329685e-05
0.000268850728
2.00630479e-05
4.41235098e-05
0.000242605092
1.98758267e-05
3.00576909e-05
0.000225718795
1.85047974e-05
1.9702692e-05
0.000214841945
1.65285346e-05
1.2797149e-05
0.000207564525
1.43442434e-05
8.48506232e-06
0.00020236969
1.21849149e-05
5.87861141e-06
0.000198371284
1.01632438e-05
4.32027958e-06
0.000195085642
8.327266e-06
3.3769883e-06
0.000192266809
6.69509777e-06
2.78304685e-06
0.000189795293
5.27041389e-06
2.38665267e-06
0.000187611158
4.04818812e-06
2.105394e-06
0.000185678338
3.01633033e-06
1.89525111e-06
0.000183967944
2.15635615e-06
1.73206176e-06
0.000182452116
1.44476015e-06
1.60141782e-06
0.000181103055
8.55531082e-07
1.493685e-06
0.000179894049
3.63397948e-07
1.40188279e-06
0.00017880085
-5.29798976e-08
1.32085935e-06
0.000177802693
-4.08663447e-07
1.24691084e-06
0.000176882673
-7.11233947e-07
1.17744109e-06
0.000176027616
-9.61105562e-07
1.1106048e-06
0.000175227599
-1.15316011e-06
1.04496689e-06
0.000174475181
-1.2791052e-06
9.79323737e-07
0.000173764532
-1.33010148e-06
9.12652709e-07
0.000173090628
-1.29917373e-06
8.44169895e-07
-1.18304018e-06
7.73420956e-07
0.000172448618
0.000435883839
4.09342974e-06
6.52992998e-05
0.000361909872
1.04690601e-05
7.69390121e-05
0.00030414495
1.45068218e-05
6.14978991e-05
0.000263614034
1.64075604e-05
4.41864025e-05
0.0002368762
1.67213841e-05
2.98922762e-05
0.000220019519
1.59950616e-05
1.93664165e-05
0.000209540678
1.4657835e-05
1.23495412e-05
0.000202888477
1.30244435e-05
7.97200085e-06
0.000198438464
1.12992263e-05
5.33570099e-06
0.000195231077
9.59863482e-06
3.7719962e-06
0.000192734879
7.98505387e-06
2.83840881e-06
0.000190673821
6.49239576e-06
2.26375887e-06
0.000188911273
5.13991328e-06
1.8930461e-06
0.00018738013
3.93795738e-06
1.64137173e-06
0.000186044395
2.88950528e-06
1.4625583e-06
0.000184879799
1.99036415e-06
1.3305859e-06
0.000183865285
1.22983991e-06
1.22943215e-06
0.000182980199
5.92529693e-07
1.14808644e-06
0.000182204024
6.10559566e-08
1.07851582e-06
0.000181517046
-3.81003181e-07
1.01500007e-06
0.000180900977
-7.46453908e-07
9.53859005e-07
0.00018033937
-1.04280437e-06
8.93176456e-07
0.000179817894
-1.27196125e-06
8.32332054e-07
0.000179324285
-1.43105187e-06
7.71500034e-07
0.000178848155
-1.51416512e-06
7.11189769e-07
0.000178380718
-1.51457214e-06
6.51907385e-07
0.000177914527
-1.42696046e-06
5.93977329e-07
-1.24928116e-06
5.37504262e-07
0.000177443263
0.000435447353
3.25513366e-06
6.53909424e-05
0.00036040262
8.34394439e-06
7.71698476e-05
0.000301437419
1.17184703e-05
6.17535516e-05
0.00025997096
1.35247398e-05
4.4349279e-05
0.00023267304
1.40921436e-05
2.99271601e-05
0.000215590911
1.37779662e-05
1.92992237e-05
0.000205142519
1.28923975e-05
1.2213829e-05
0.000198698662
1.16774738e-05
7.79082561e-06
0.000194570811
1.03023828e-05
5.12469289e-06
0.000191752803
8.87505017e-06
3.54159179e-06
0.000189680758
7.46186488e-06
2.59523289e-06
0.000188055657
6.1048718e-06
2.01262419e-06
0.000186724766
4.83276315e-06
1.63804016e-06
0.000185610789
3.66605746e-06
1.38587711e-06
0.000184672775
2.61847424e-06
1.20904484e-06
0.000183885726
1.69684184e-06
1.08057115e-06
0.000183230762
9.01224345e-07
9.83579446e-07
0.00018269091
2.26022753e-07
9.06357733e-07
0.000182249624
-3.3801414e-07
8.40355936e-07
0.000181890323
-8.01254076e-07
7.79550153e-07
0.00018159635
-1.17268721e-06
7.20204776e-07
0.000181351148
-1.45822565e-06
6.60622124e-07
0.000181138438
-1.65992876e-06
6.00675349e-07
0.000180942433
-1.77630722e-06
5.41258584e-07
0.000180748099
-1.80354215e-06
4.83709826e-07
0.000180541474
-1.73727659e-06
4.29327952e-07
0.000180310033
-1.57456585e-06
3.7904563e-07
-1.31559085e-06
3.33284703e-07
0.000180043057
0.000435162211
2.6307827e-06
6.54621391e-05
0.000359404089
6.75343748e-06
7.73486283e-05
0.000299585331
9.57123412e-06
6.19659933e-05
0.000257383941
1.12081732e-05
4.45179556e-05
0.000229575426
1.18769419e-05
3.00237158e-05
0.000212203958
1.18130137e-05
1.93364191e-05
0.000201646966
1.12368853e-05
1.22125034e-05
0.00019522892
1.03307456e-05
7.76477393e-06
0.000191219975
9.22972593e-06
5.0816014e-06
0.00018858207
8.02754647e-06
3.48540781e-06
0.000186728395
6.78791938e-06
2.52761891e-06
0.000185343296
5.55551595e-06
1.93445414e-06
0.0001842618
4.3639918e-06
1.55026657e-06
0.000183398156
3.24013925e-06
1.28956055e-06
0.000182706602
2.20493808e-06
1.1050891e-06
0.00018216064
1.2732317e-06
9.69571072e-07
0.000181742533
4.53488458e-07
8.65842005e-07
0.000181438162
-2.51633105e-07
7.82026365e-07
0.000181234446
-8.43859976e-07
7.09560874e-07
0.000181117902
-1.32720813e-06
6.42498044e-07
0.00018107384
-1.70593489e-06
5.77309081e-07
0.000181085946
-1.98289036e-06
5.12558511e-07
0.000181136207
-2.15864127e-06
4.48450601e-07
0.000181205187
-2.23153841e-06
3.86251554e-07
0.000181272611
-2.19864709e-06
3.27680517e-07
0.000181318216
-2.05727053e-06
2.74389042e-07
0.000181322752
-1.80666055e-06
2.27558482e-07
-1.44957539e-06
1.87699409e-07
0.000181269037
0.000434965561
2.14809261e-06
6.55171285e-05
0.00035871282
5.51981662e-06
7.74863612e-05
0.00029827664
7.87160711e-06
6.21358064e-05
0.000255504185
9.31334828e-06
4.46672792e-05
0.000227257854
9.99248084e-06
3.01307906e-05
0.000209596462
1.00675007e-05
1.94069037e-05
0.000198879566
9.69425785e-06
1.22595221e-05
0.000192404545
9.00795917e-06
7.79780664e-06
0.000188414504
8.11400988e-06
5.10575499e-06
0.000185848741
7.09050442e-06
3.50280428e-06
0.00018410323
5.99487384e-06
2.5385543e-06
0.000182849474
4.87072076e-06
1.93855022e-06
0.000181912903
3.75336064e-06
1.54720124e-06
0.000181200992
2.67285461e-06
1.27919597e-06
0.00018066397
1.65464728e-06
1.08731232e-06
0.000180273991
7.19046683e-07
9.44163433e-07
0.000180014243
-1.19243531e-07
8.32480999e-07
0.000179873146
-8.5094021e-07
7.40403821e-07
0.000179840932
-1.47109625e-06
6.59450637e-07
0.000179907352
-1.97755195e-06
5.83923456e-07
0.000180060024
-2.36921025e-06
5.10603287e-07
0.000180283354
-2.6446093e-06
4.38388237e-07
0.000180558078
-2.80117688e-06
3.67811694e-07
0.000180861432
-2.83533793e-06
3.00444944e-07
0.000181167916
-2.74339525e-06
2.38262906e-07
0.000181450535
-2.52296417e-06
1.83074654e-07
0.0001816824
-2.17467431e-06
1.36148052e-07
-1.70375644e-06
9.80343843e-08
0.000181838546
0.000434824688
1.76367008e-06
6.55597338e-05
0.000358216419
4.53500537e-06
7.75930787e-05
0.000297323467
6.49447748e-06
6.22700802e-05
0.000254106015
7.73896196e-06
4.47918368e-05
0.000225493114
8.37623273e-06
3.02291488e-05
0.000207563603
8.51565831e-06
1.94813522e-05
0.000196671882
8.26753808e-06
1.23184403e-05
0.000190100648
7.73130751e-06
7.84788496e-06
0.000186076049
6.98783751e-06
5.15077115e-06
0.000183521827
6.10043281e-06
3.54429319e-06
0.000181821275
5.11879189e-06
2.57663364e-06
0.000180635982
4.08325199e-06
1.97276057e-06
0.000179783797
3.02849311e-06
1.5770516e-06
0.000179166758
1.98559187e-06
1.3043005e-06
0.000178731826
9.82270604e-07
1.10730648e-06
0.000178450023
4.22411669e-08
9.58607944e-07
0.000178305291
-8.15404683e-07
8.40892651e-07
0.000178288243
-1.57612161e-06
7.4222849e-07
0.000178392126
-2.22920199e-06
6.54222309e-07
0.000178609721
-2.76653147e-06
5.71383822e-07
0.000178930916
-3.18116419e-06
4.90759076e-07
0.000179340983
-3.46621219e-06
4.11536048e-07
0.000179819643
-3.6143708e-06
3.34533971e-07
0.000180340976
-3.61822575e-06
2.61554472e-07
0.000180874169
-3.4713383e-06
1.94750936e-07
0.00018138505
-3.16993089e-06
1.36085939e-07
0.000181838292
-2.71486586e-06
8.69491066e-08
-2.11346382e-06
4.7949855e-08
0.00018220005
0.000434720391
1.4502935e-06
6.55929856e-05
0.000357848178
3.73078723e-06
7.76764304e-05
0.000296609257
5.35728734e-06
6.23761103e-05
0.000253041557
6.41345426e-06
4.48932063e-05
0.000224123791
6.98056431e-06
3.03134324e-05
0.000205954381
7.13571167e-06
1.95493557e-05
0.000194889049
6.95728108e-06
1.23755879e-05
0.00018820355
6.51795356e-06
7.89885092e-06
0.000184114069
5.87896721e-06
5.19835048e-06
0.000181534246
5.09058166e-06
3.5896728e-06
0.000179838538
4.19455266e-06
2.61994587e-06
0.000178681292
3.22680795e-06
2.01368951e-06
0.000177874671
2.21988845e-06
1.61522436e-06
0.000177316615
1.2042526e-06
1.33939514e-06
0.000176951656
2.08229496e-07
1.13900064e-06
0.000176750048
-7.42709489e-07
9.86558727e-07
0.00017669652
-1.62650361e-06
8.64626909e-07
0.000176783732
-2.4245442e-06
7.6121098e-07
0.000177007637
-3.12110686e-06
6.68000235e-07
0.000177363758
-3.70226228e-06
5.79610442e-07
0.000177844084
-4.15474276e-06
4.93252648e-07
0.000178434684
-4.46512885e-06
4.08317425e-07
0.000179114186
-4.61968382e-06
3.25810357e-07
0.000179853289
-4.60503074e-06
2.47702359e-07
0.000180615357
-4.40971306e-06
1.76306271e-07
0.000181358161
-4.02647104e-06
1.13736424e-07
0.000182036651
-3.4548666e-06
6.15108502e-08
-2.70368453e-06
2.03291559e-08
0.000182606542
0.000434640836
1.19024656e-06
6.56192104e-05
0.000357566826
3.0625288e-06
7.77422667e-05
0.000296059476
4.40424308e-06
6.24603931e-05
0.00025221191
5.28574011e-06
4.49752797e-05
0.000223039671
5.76897995e-06
3.03838217e-05
0.000204658184
5.90897323e-06
1.96082242e-05
0.000193427339
5.76158072e-06
1.2426545e-05
0.000186620492
5.37961025e-06
7.94518869e-06
0.000182448485
4.80883176e-06
5.24214208e-06
0.000179818835
4.08838952e-06
3.6318412e-06
0.00017810027
3.25249416e-06
2.66062277e-06
0.000176942245
2.3321698e-06
2.05266274e-06
0.000176153038
1.3568673e-06
1.65222669e-06
0.000175627859
3.5524982e-07
1.3741812e-06
0.000175309767
-6.45043359e-07
1.17136462e-06
0.000175168895
-1.61803471e-06
1.01619725e-06
0.000175191174
-2.5398998e-06
8.91117167e-07
0.000175371431
-3.38896444e-06
7.84163001e-07
0.000175708377
-4.14506552e-06
6.8701218e-07
0.000176200328
-4.78856244e-06
5.94350164e-07
0.000176841438
-5.29934245e-06
5.0348965e-07
0.000177618593
-5.6562176e-06
4.13933406e-07
0.000178509193
-5.83708424e-06
3.26800735e-07
0.000179480082
-5.82010636e-06
2.44187541e-07
0.00018048784
-5.58600307e-06
1.68531502e-07
0.000181480598
-5.12130236e-06
1.02074646e-07
0.000182401385
-4.42213395e-06
4.6479819e-08
-3.49779528e-06
2.58407924e-09
0.000183192912
0.000434578445
9.71621841e-07
6.56401789e-05
0.000357345828
2.50013111e-06
7.77950149e-05
0.000295625057
3.59682743e-06
6.25281849e-05
0.00025154971
4.31901952e-06
4.50420663e-05
0.00022216287
4.71358232e-06
3.04422371e-05
0.000203593955
4.81970988e-06
1.96581771e-05
0.000192207893
4.67709673e-06
1.24705447e-05
0.000185278132
4.32375399e-06
7.98561563e-06
0.000181013091
3.79331341e-06
5.28055823e-06
0.000178316928
3.11558489e-06
3.66896707e-06
0.000176554994
2.31785869e-06
2.69656891e-06
0.000175373787
1.42610816e-06
2.08726763e-06
0.000174579296
4.66082414e-07
1.68527551e-06
0.00017406527
-5.36244963e-07
1.40552017e-06
0.000173774357
-1.55492156e-06
1.20079092e-06
0.000173677475
-2.56454836e-06
1.04339549e-06
0.000173762401
-3.54061411e-06
9.1578784e-07
0.00017402673
-4.45924925e-06
8.0595599e-07
0.000174472522
-5.29643225e-06
7.05575469e-07
0.00017510149
-6.0268947e-06
6.09364014e-07
0.000175910542
-6.62308294e-06
5.14688807e-07
0.000176887836
-7.0546272e-06
4.21115997e-07
0.000178009677
-7.28876274e-06
3.29837327e-07
0.000179238615
-7.29207404e-06
2.43030427e-07
0.00018052313
-7.03376088e-06
1.63242761e-07
0.000181799318
-6.49036595e-06
9.28756384e-08
0.000182994844
-5.65146309e-06
3.38036711e-08
-4.52528003e-06
-1.29227087e-08
0.000184035251
0.000434528198
7.86201685e-07
6.56572213e-05
0.000357167568
2.02277827e-06
7.78379819e-05
0.000295272902
2.90794095e-06
6.25835522e-05
0.000251008346
3.4865432e-06
4.50970302e-05
0.000221437872
3.79311544e-06
3.04909398e-05
0.000202702127
3.85501144e-06
1.97004423e-05
0.000191170971
3.70004701e-06
1.25082041e-05
0.000184119172
3.35510084e-06
8.02045167e-06
0.000179754473
2.84423343e-06
5.31377866e-06
0.000176979492
2.18941975e-06
3.70114474e-06
0.000175157895
1.41166358e-06
2.72779179e-06
0.000173934718
5.31889952e-07
2.11739557e-06
0.000173114927
-4.2830241e-07
1.7141753e-06
0.000172591974
-1.44632758e-06
1.43303564e-06
0.000172309198
-2.49881212e-06
1.2266658e-06
0.000172239235
-3.56198195e-06
1.06739669e-06
0.00017237267
-4.61168391e-06
9.37634113e-07
0.000172710925
-5.62280272e-06
8.25299091e-07
0.000173260572
-6.56814111e-06
7.22060987e-07
0.000174028018
-7.41698128e-06
6.22639915e-07
0.000175014271
-8.13375378e-06
5.24417792e-07
0.000176209989
-8.6773339e-06
4.2698911e-07
0.000177591165
-9.00153163e-06
3.31592179e-07
0.00017911595
-9.05734904e-06
2.40490313e-07
0.000180723239
-8.79743661e-06
1.56386889e-07
0.00018233384
-8.1828888e-06
8.19215214e-08
0.000183854987
-7.19186788e-06
1.92580833e-08
-5.82867965e-06
-3.02372975e-08
0.000185188624
0.000434486682
6.2819019e-07
6.5671329e-05
0.000357020073
1.61576522e-06
7.78736209e-05
0.000294980248
2.31819057e-06
6.26295744e-05
0.00025055513
2.76869887e-06
4.51429624e-05
0.000220824804
2.99143684e-06
3.0532003e-05
0.000201938824
3.00455017e-06
1.97364405e-05
0.000190271438
2.82689223e-06
1.25405397e-05
0.000183099201
2.47682521e-06
8.05051173e-06
0.000178630135
1.97076994e-06
5.34252868e-06
0.000175766445
1.3240551e-06
3.72905438e-06
0.000173871231
5.51947549e-07
2.75492901e-06
0.000172589096
-3.29669542e-07
2.14369349e-06
0.000171724984
-1.30370838e-06
1.73951744e-06
0.000171173068
-2.35160231e-06
1.45719032e-06
0.00017087829
-3.45348088e-06
1.24944666e-06
0.000170816008
-4.58828977e-06
1.08858951e-06
0.000170980824
-5.73343369e-06
9.56932976e-07
0.000171379417
-6.86374699e-06
8.42351993e-07
0.000172024641
-7.94982288e-06
7.36456624e-07
0.000172929705
-8.95597313e-06
6.33928533e-07
0.000174102074
-9.83825586e-06
5.32133371e-07
0.000175537257
-1.05431916e-05
4.30674107e-07
0.000177212815
-1.10079284e-05
3.30839439e-07
0.000179083205
-1.11627543e-05
2.35015568e-07
0.000181076441
-1.0936807e-05
1.46134158e-07
0.000183093949
-1.02675828e-05
6.71868128e-08
0.00018501527
-9.11395234e-06
7.63892107e-10
-7.47100687e-06
-5.12894677e-08
0.000186708888
0.000434451537
4.93418387e-07
6.56832346e-05
0.00035689506
1.26849992e-06
7.79037411e-05
0.000294731221
1.81347777e-06
6.26685511e-05
0.000250166921
2.15097632e-06
4.5182021e-05
0.000220294911
2.29630511e-06
3.05671421e-05
0.000201271754
2.26024198e-06
1.97674646e-05
0.000189475378
2.05469959e-06
1.25685685e-05
0.000182184144
1.69139287e-06
8.07666657e-06
0.000177606772
1.18053308e-06
5.36760818e-06
0.000174645653
5.31721158e-07
3.75345262e-06
0.000172663951
-2.45113397e-07
2.77876316e-06
0.000171306488
-1.13914443e-06
2.16693696e-06
0.000170378934
-2.13810895e-06
1.76195409e-06
0.000169776842
-3.22817144e-06
1.47866024e-06
0.000169447522
-4.39396636e-06
1.26980387e-06
0.000169370057
-5.61842813e-06
1.10760356e-06
0.000169544361
-6.88203535e-06
9.74296425e-07
0.000169984146
-8.16118223e-06
8.57649435e-07
0.000170710917
-9.42577101e-06
7.49176409e-07
0.000171747715
-1.06362545e-05
6.43483633e-07
0.000173112105
-1.17405341e-05
5.37887776e-07
0.000174808406
-1.26714772e-05
4.31984363e-07
0.000176819393
-1.33460402e-05
3.27124608e-07
0.000179098142
-1.36673735e-05
2.25869986e-07
0.000181561327
-1.35314772e-05
1.31486062e-07
0.000184086202
-1.28399412e-05
4.74838961e-08
0.000186514449
-1.15193177e-05
-2.28812478e-08
-9.5455087e-06
-7.69866785e-08
0.000188665938
0.000434421117
3.78826597e-07
6.56934745e-05
0.00035678675
9.73200906e-07
7.79296647e-05
0.000294514676
1.38337548e-06
6.27021759e-05
0.000249827308
1.62251091e-06
4.52158314e-05
0.000219827509
1.69840455e-06
3.05976988e-05
0.00020067733
1.61584287e-06
1.97945769e-05
0.000188757625
1.3812426e-06
1.25931606e-05
0.000181348316
1.00102541e-06
8.09967604e-06
0.000176658872
4.80264868e-07
5.38971121e-06
0.000173592041
-1.76498868e-07
3.77505113e-06
0.000171511295
-9.64396737e-07
2.80002963e-06
0.000170062065
-1.87762145e-06
2.18770653e-06
0.000169051025
-2.90914595e-06
1.78207687e-06
0.000168375448
-4.05064635e-06
1.49805262e-06
0.000167985562
-5.29240231e-06
1.28832172e-06
0.000167865004
-6.62289218e-06
1.12502197e-06
0.000168020301
-8.02758892e-06
9.9025735e-07
0.000168474155
-9.48669003e-06
8.71653441e-07
0.000169259637
-1.09718383e-05
7.60585711e-07
0.000170413674
-1.2441829e-05
6.51536705e-07
0.000171969183
-1.38377749e-05
5.41731688e-07
0.000173945512
-1.50785405e-05
4.30734546e-07
0.000176337105
-1.60576035e-05
3.19969842e-07
0.000179100865
-1.664338e-05
2.12246047e-07
0.000182143764
-1.66856985e-05
1.1132319e-07
0.000185314082
-1.60317361e-05
2.14767343e-08
0.000188401699
-1.45540005e-05
-5.29349596e-08
-1.2190248e-05
-1.07935932e-07
0.000191154374
0.000434394277
2.82113928e-07
6.57024355e-05
0.000356691121
7.24010669e-07
7.79523453e-05
0.000294322826
1.01999517e-06
6.27316744e-05
0.000249524742
1.17500902e-06
4.5245587e-05
0.000219407917
1.19054573e-06
3.06246828e-05
0.000200138653
1.06650877e-06
1.98185985e-05
0.000188099988
8.04904947e-07
1.26150023e-05
0.000180572994
4.07884135e-07
8.12013567e-06
0.00017576766
-1.23833411e-07
5.40943212e-06
0.000172586951
-7.90288392e-07
3.7944986e-06
0.00017039467
-1.59129865e-06
2.81918231e-06
0.000168836759
-2.52615219e-06
2.20644165e-06
0.000167720771
-3.59352123e-06
1.80036253e-06
0.00016694571
-4.79140244e-06
1.51581695e-06
0.000166464884
-6.1170084e-06
1.3054321e-06
0.000166266962
-7.56619514e-06
1.14122406e-06
0.000166366118
-9.13188307e-06
1.00513737e-06
0.000166796041
-1.08012224e-05
8.84609691e-07
0.000167604653
-1.25512676e-05
7.70816679e-07
0.000168847815
-1.43430418e-05
6.58050245e-07
0.000170580975
-1.61143174e-05
5.43381313e-07
0.000172847826
-1.77716891e-05
4.26297908e-07
0.000175665233
-1.91833145e-05
3.08303396e-07
0.000179004209
-2.01749147e-05
1.92558522e-07
0.000182768247
-2.05333226e-05
8.35857617e-08
0.000186773611
-2.00239779e-05
-1.31223371e-08
0.000190739927
-1.84290456e-05
-9.12712359e-08
-1.56119232e-05
-1.44497702e-07
0.000194306099
0.000434370231
2.01491111e-07
6.57103912e-05
0.000356605418
5.16367401e-07
7.7972456e-05
0.00029415034
7.17160658e-07
6.2757912e-05
0.000249251298
8.01917182e-07
4.52721335e-05
0.000219026045
7.66978888e-07
3.06488187e-05
0.000199644102
6.08325748e-07
1.98401254e-05
0.000187489973
3.2444537e-07
1.26345883e-05
0.000179845364
-8.60254217e-08
8.13851819e-06
0.000174920363
-6.26163528e-07
5.42733101e-06
0.000171617875
-1.29992722e-06
3.81212625e-06
0.000169301653
-2.11158571e-06
2.83650907e-06
0.000167617632
-3.0656324e-06
2.22350142e-06
0.000166373775
-4.16680119e-06
1.81713639e-06
0.000165470334
-5.4202077e-06
1.53224636e-06
0.000164863307
-6.83135409e-06
1.32137238e-06
0.000164546273
-8.4055499e-06
1.15638893e-06
0.000164541554
-1.01462007e-05
1.01903707e-06
0.000164895384
-1.20515532e-05
8.96500806e-07
0.00016567383
-1.41093843e-05
7.79671299e-07
0.000166957525
-1.62892871e-05
6.62549301e-07
0.000168833698
-1.85324353e-05
5.41944876e-07
0.000171383664
-2.0738837e-05
4.17182371e-07
0.000174663785
-2.27532632e-05
2.89827227e-07
0.000178678031
-2.43526912e-05
1.63529544e-07
0.000183341945
-2.5241256e-05
4.40186372e-08
0.000188443021
-2.50640252e-05
-6.10287107e-08
0.000193608361
-2.34527965e-05
-1.4158917e-07
-2.01271278e-05
-1.86772739e-07
0.000198310338
0.000434348467
1.35497599e-07
6.57175259e-05
0.000356527839
3.46542264e-07
7.79904533e-05
0.000293993734
4.6979129e-07
6.2781474e-05
0.000249001833
4.97773274e-07
4.52960444e-05
0.000218675407
4.22806475e-07
3.06705988e-05
0.000199186311
2.37860445e-07
1.98595604e-05
0.000186919837
-6.13646864e-08
1.26522849e-05
0.000179157784
-4.79270501e-07
8.15529799e-06
0.000174109819
-1.02183747e-06
5.4436385e-06
0.000170678283
-1.69647345e-06
3.82808248e-06
0.000168226128
-2.51170203e-06
2.8522713e-06
0.000166398498
-3.47711425e-06
2.23911112e-06
0.000165002834
-4.60372141e-06
1.83258407e-06
0.000163939561
-5.90440619e-06
1.54747138e-06
0.000163166224
-7.39423041e-06
1.33621359e-06
0.000162680307
-9.09013804e-06
1.17050545e-06
0.000162511749
-1.1009466e-05
1.0318227e-06
0.000162719842
-1.31666489e-05
9.07003473e-07
0.000163391331
-1.55673989e-05
7.86525446e-07
0.000164637584
-1.81994725e-05
6.63931332e-07
0.000166588616
-2.10190423e-05
5.35574937e-07
0.000169381202
-2.39318585e-05
4.00434374e-07
0.00017313704
-2.67691678e-05
2.60066138e-07
0.000177925576
-2.92600159e-05
1.18787707e-07
0.000183707704
-3.10075822e-05
-1.58016221e-08
0.000190261885
-3.14859906e-05
-1.32215548e-07
0.000197102595
-3.00803734e-05
-2.13133433e-07
-2.62341666e-05
-2.38942105e-07
0.000203448576
0.000434328677
8.28641655e-08
6.57239568e-05
0.000356457305
2.11286015e-07
7.80066281e-05
0.000293850952
2.73417451e-07
6.28027258e-05
0.00024877338
2.57672241e-07
4.53176739e-05
0.000218352382
1.53481899e-07
3.06903215e-05
0.00019876139
-4.83198479e-08
1.98771726e-05
0.000186385954
-3.54397276e-07
1.26684686e-05
0.000178507279
-7.7122666e-07
8.17063132e-06
0.000173334124
-1.30705689e-06
5.45837496e-06
0.000169767471
-1.97236683e-06
3.84254618e-06
0.000167168576
-2.779425e-06
2.86661816e-06
0.000165180682
-3.74260151e-06
2.2533817e-06
0.000163609297
-4.87910598e-06
1.84676944e-06
0.000162353277
-6.20988789e-06
1.56150141e-06
0.000161369648
-7.76048808e-06
1.3498876e-06
0.00016065752
-9.56140058e-06
1.18339041e-06
0.000160252261
-1.16473393e-05
1.04313164e-06
0.00016022482
-1.40546703e-05
9.15462552e-07
0.000160683181
-1.68159947e-05
7.90234132e-07
0.000161773896
-1.99504174e-05
6.60229294e-07
0.000163681161
-2.34472679e-05
5.20960069e-07
0.000166619532
-2.72408847e-05
3.70654749e-07
0.000170813069
-3.11733195e-05
2.10614317e-07
0.000176450405
-3.49434828e-05
4.61306077e-08
0.000183603737
-3.80493356e-05
-1.11578782e-07
0.000192099236
-3.97374102e-05
-2.44078886e-07
0.000201338962
-3.90001218e-05
-3.19977431e-07
-3.4752306e-05
-3.0774284e-07
0.000210164844
0.000434310713
4.24000073e-08
6.57297508e-05
0.000356393299
1.07556192e-07
7.80211439e-05
0.000293721051
1.23800452e-07
6.28218651e-05
0.000248564663
7.6861717e-08
4.53371987e-05
0.000218055647
-4.56670943e-08
3.07081645e-05
0.000198368447
-2.54350322e-07
1.98932312e-05
0.000185888201
-5.5738199e-07
1.26832311e-05
0.000177895052
-9.62511357e-07
8.18443356e-06
0.000172596215
-1.47986337e-06
5.47164418e-06
0.000168890461
-2.12221862e-06
3.85560588e-06
0.00016613632
-2.90489022e-06
2.8796067e-06
0.00016397376
-3.84637634e-06
2.26633534e-06
0.000162204521
-4.9695377e-06
1.85967086e-06
0.000160723461
-6.30308012e-06
1.57425144e-06
0.000159483956
-7.88319928e-06
1.36221615e-06
0.000158482867
-9.75503183e-06
1.1947204e-06
0.000157756509
-1.1973382e-05
1.05240011e-06
0.000157382927
-1.4601985e-05
9.20895766e-07
0.000157487977
-1.7710114e-05
7.89068851e-07
0.000158253673
-2.13644965e-05
6.48383266e-07
0.000159926802
-2.56131096e-05
4.92712427e-07
0.00016282314
-3.04557415e-05
3.18519511e-07
0.000167317302
-3.5793301e-05
1.25819261e-07
0.000173801773
-4.13487378e-05
-7.92154757e-08
0.000182586751
-4.65555179e-05
-2.78795233e-07
0.000193693298
-5.04042554e-05
-4.39701699e-07
0.000206494737
-5.13067485e-05
-4.94812489e-07
-4.71276044e-05
-4.01350088e-07
0.000219271385