/*--------------------------------*- C++ -*----------------------------------*\
| =========                 |                                                 |
| \\      /  F ield         | foam-extend: Open Source CFD                    |
|  \\    /   O peration     | Version:     4.1                                |
|   \\  /    A nd           | Web:         http://www.foam-extend.org         |
|    \\/     M anipulation  |                                                 |
\*---------------------------------------------------------------------------*/
FoamFile
{
    version     2.0;
    format      ascii;
    class       pointVectorField;
    location    "0.1";
    object      pointMotionU;
}
// * * * * * * * * * * * * * * * * * * * * * * * * * * * * * * * * * * * * * //

dimensions      [0 1 -1 0 0 0 0];

internalField   nonuniform List<vector> 
40832
(
(0 0 0)
(0 0 0)
(0 0 0)
(0 0 0)
(0 0 0)
(0 0 0)
(0 0 0)
(0 0 0)
(0 0 0)
(0 0 0)
(0 0 0)
(0 0 0)
(0 0 0)
(0 0 0)
(0 0 0)
(0 0 0)
(0 0 0)
(0 0 0)
(0 0 0)
(0 0 0)
(0 0 0)
(0 0 0)
(0 0 0)
(0 0 0)
(0 0 0)
(0 0 0)
(0 0 0)
(0 0 0)
(0 0 0)
(0 0 0)
(0 0 0)
(0 0 0)
(0 0 0)
(0 0 0)
(0 0 0)
(0 0 0)
(0 0 0)
(0 0 0)
(0 0 0)
(0 0 0)
(0 0 0)
(0 0 0)
(0 0 0)
(0 0 0)
(0 0 0)
(0 0 0)
(0 0 0)
(0 0 0)
(0 0 0)
(0 0 0)
(0 0 0)
(0 0 0)
(0 0 0)
(0 0 0)
(0 0 0)
(0 0 0)
(0 0 0)
(0 0 0)
(0 0 0)
(0 0 0)
(0 0 0)
(0 0 0)
(0 0 0)
(0 0 0)
(0 0 0)
(0 0 0)
(0 0 0)
(0 0 0)
(0 0 0)
(0 0 0)
(0 0 0)
(0 0 0)
(0 0 0)
(0 0 0)
(0 0 0)
(0 0 0)
(0 0 0)
(0 0 0)
(0 0 0)
(0 0 0)
(0 0 0)
(0 0 0)
(0 0 0)
(0 0 0)
(0 0 0)
(0 0 0)
(0 0 0)
(0 0 0)
(0 0 0)
(0 0 0)
(0 0 0)
(0 0 0)
(0 0 0)
(0 0 0)
(0 0 0)
(0 0 0)
(0 0 0)
(0 0 0)
(0 0 0)
(0 0 0)
(0 0 0)
(0 0 0)
(0 0 0)
(0 0 0)
(0 0 0)
(0 0 0)
(0 0 0)
(0 0 0)
(0 0 0)
(0 0 0)
(0 0 0)
(0 0 0)
(0 0 0)
(0 0 0)
(0 0 0)
(0 0 0)
(0 0 0)
(0 0 0)
(0 0 0)
(0 0 0)
(0 0 0)
(0 0 0)
(0 0 0)
(0 0 0)
(0 0 0)
(0 0 0)
(0 0 0)
(0 0 0)
(0 0 0)
(0 0 0)
(0 0 0)
(0 0 0)
(0 0 0)
(0 0 0)
(0 0 0)
(0 0 0)
(0 0 0)
(0 0 0)
(0 0 0)
(0 0 0)
(0 0 0)
(0 0 0)
(0 0 0)
(0 0 0)
(0 0 0)
(0 0 0)
(0 0 0)
(0 0 0)
(0 0 0)
(0 0 0)
(0 0 0)
(0 0 0)
(0 0 0)
(0 0 0)
(0 0 0)
(0 0 0)
(0 0 0)
(0 0 0)
(0 0 0)
(0 0 0)
(0 0 0)
(0 0 0)
(0 0 0)
(0 0 0)
(0 0 0)
(0 0 0)
(0 0 0)
(0 0 0)
(0 0 0)
(0 0 0)
(0 0 0)
(0 0 0)
(0 0 0)
(0 0 0)
(0 0 0)
(0 0 0)
(0 0 0)
(0 0 0)
(0 0 0)
(0 0 0)
(0 0 0)
(0 0 0)
(0 0 0)
(0 0 0)
(0 0 0)
(0 0 0)
(0 0 0)
(0 0 0)
(0 0 0)
(0 0 0)
(0 0 0)
(0 0 0)
(0 0 0)
(0 0 0)
(0 0 0)
(0 0 0)
(0 0 0)
(0 0 0)
(0 0 0)
(0 0 0)
(0 0 0)
(0 0 0)
(0 0 0)
(0 0 0)
(0 0 0)
(0 0 0)
(0 0 0)
(0 0 0)
(0 0 0)
(0 0 0)
(0 0 0)
(0 0 0)
(0 0 0)
(0 0 0)
(0 0 0)
(0 0 0)
(0 0 0)
(0 0 0)
(0 0 0)
(0 0 0)
(0 0 0)
(0 0 0)
(0 0 0)
(0 0 0)
(0 0 0)
(0 0 0)
(0 0 0)
(0 0 0)
(0 0 0)
(0 0 0)
(0 0 0)
(0 0 0)
(0 0 0)
(0 0 0)
(0 0 0)
(0 0 0)
(0 0 0)
(0 0 0)
(0 0 0)
(0 0 0)
(0 0 0)
(0 0 0)
(0 0 0)
(0 0 0)
(0 0 0)
(0 0 0)
(0 0 0)
(0 0 0)
(0 0 0)
(0 0 0)
(0 0 0)
(0 0 0)
(0 0 0)
(0 0 0)
(0 0 0)
(0 0 0)
(0 0 0)
(0 0 0)
(0 0 0)
(0 0 0)
(0 0 0)
(0 0 0)
(0 0 0)
(0 0 0)
(0 0 0)
(0 0 0)
(0 0 0)
(0 0 0)
(0 0 0)
(0 0 0)
(0 0 0)
(0 0 0)
(0 0 0)
(0 0 0)
(0 0 0)
(0 0 0)
(0 0 0)
(0 0 0)
(0 0 0)
(0 0 0)
(0 0 0)
(0 0 0)
(0 0 0)
(0 0 0)
(0 0 0)
(0 0 0)
(0 0 0)
(0 0 0)
(0 0 0)
(0 0 0)
(0 0 0)
(0 0 0)
(0 0 0)
(0 0 0)
(0 0 0)
(0 0 0)
(0 0 0)
(0 0 0)
(0 0 0)
(0 0 0)
(0 0 0)
(0 0 0)
(0 0 0)
(0 0 0)
(0 0 0)
(0 0 0)
(0 0 0)
(0 0 0)
(0 0 0)
(0 0 0)
(0 0 0)
(0 0 0)
(0 0 0)
(0 0 0)
(0 0 0)
(0 0 0)
(0 0 0)
(0 0 0)
(0 0 0)
(0 0 0)
(0 0 0)
(0 0 0)
(0 0 0)
(0 0 0)
(0 0 0)
(0 0 0)
(0 0 0)
(0 0 0)
(0 0 0)
(0 0 0)
(0 0 0)
(0 0 0)
(0 0 0)
(0 0 0)
(0 0 0)
(0 0 0)
(0 0 0)
(0 0 0)
(0 0 0)
(0 0 0)
(0 0 0)
(0 0 0)
(0 0 0)
(0 0 0)
(0 0 0)
(0 0 0)
(0 0 0)
(0 0 0)
(0 0 0)
(0 0 0)
(0 0 0)
(0 0 0)
(0 0 0)
(0 0 0)
(0 0 0)
(0 0 0)
(0 0 0)
(0 0 0)
(0 0 0)
(0 0 0)
(0 0 0)
(0 0 0)
(0 0 0)
(0 0 0)
(0 0 0)
(0 0 0)
(0 0 0)
(0 0 0)
(0 0 0)
(0 0 0)
(0 0 0)
(0 0 0)
(0 0 0)
(0 0 0)
(0 0 0)
(0 0 0)
(0 0 0)
(0 0 0)
(0 0 0)
(0 0 0)
(0 0 0)
(0 0 0)
(0 0 0)
(0 0 0)
(0 0 0)
(0 0 0)
(0 0 0)
(0 0 0)
(0 0 0)
(0 0 0)
(0 0 0)
(0 0 0)
(0 0 0)
(0 0 0)
(0 0 0)
(0 0 0)
(0 0 0)
(0 0 0)
(0 0 0)
(0 0 0)
(0 0 0)
(0 0 0)
(0 0 0)
(0 0 0)
(0 0 0)
(0 0 0)
(0 0 0)
(0 0 0)
(0 0 0)
(0 0 0)
(0 0 0)
(0 0 0)
(0 0 0)
(0 0 0)
(0 0 0)
(0 0 0)
(0 0 0)
(0 0 0)
(0 0 0)
(0 0 0)
(0 0 0)
(0 0 0)
(0 0 0)
(0 0 0)
(0 0 0)
(0 0 0)
(0 0 0)
(0 0 0)
(0 0 0)
(0 0 0)
(0 0 0)
(0 0 0)
(0 0 0)
(0 0 0)
(0 0 0)
(0 0 0)
(0 0 0)
(0 0 0)
(0 0 0)
(0 0 0)
(0 0 0)
(0 0 0)
(0 0 0)
(0 0 0)
(0 0 0)
(0 0 0)
(0 0 0)
(0 0 0)
(0 0 0)
(0 0 0)
(0 0 0)
(0 0 0)
(0 0 0)
(0 0 0)
(0 0 0)
(0 0 0)
(0 0 0)
(0 0 0)
(0 0 0)
(0 0 0)
(0 0 0)
(0 0 0)
(0 0 0)
(0 0 0)
(0 0 0)
(0 0 0)
(0 0 0)
(0 0 0)
(0 0 0)
(0 0 0)
(0 0 0)
(0 0 0)
(0 0 0)
(0 0 0)
(0 0 0)
(0 0 0)
(0 0 0)
(0 0 0)
(0 0 0)
(0 0 0)
(0 0 0)
(0 0 0)
(0 0 0)
(0 0 0)
(0 0 0)
(0 0 0)
(0 0 0)
(0 0 0)
(0 0 0)
(0 0 0)
(0 0 0)
(0 0 0)
(0 0 0)
(0 0 0)
(0 0 0)
(0 0 0)
(0 0 0)
(0 0 0)
(0 0 0)
(0 0 0)
(0 0 0)
(0 0 0)
(0 0 0)
(0 0 0)
(0 0 0)
(0 0 0)
(0 0 0)
(0 0 0)
(0 0 0)
(0 0 0)
(0 0 0)
(0 0 0)
(0 0 0)
(0 0 0)
(0 0 0)
(0 0 0)
(0 0 0)
(0 0 0)
(0 0 0)
(0 0 0)
(0 0 0)
(0 0 0)
(0 0 0)
(0 0 0)
(0 0 0)
(0 0 0)
(0 0 0)
(0 0 0)
(0 0 0)
(0 0 0)
(0 0 0)
(0 0 0)
(0 0 0)
(0 0 0)
(0 0 0)
(0 0 0)
(0 0 0)
(0 0 0)
(0 0 0)
(0 0 0)
(0 0 0)
(0 0 0)
(0 0 0)
(0 0 0)
(0 0 0)
(0 0 0)
(0 0 0)
(0 0 0)
(0 0 0)
(0 0 0)
(0 0 0)
(0 0 0)
(0 0 0)
(0 0 0)
(0 0 0)
(0 0 0)
(0 0 0)
(0 0 0)
(0 0 0)
(0 0 0)
(0 0 0)
(0 0 0)
(0 0 0)
(0 0 0)
(0 0 0)
(0 0 0)
(0 0 0)
(0 0 0)
(0 0 0)
(0 0 0)
(0 0 0)
(0 0 0)
(0 0 0)
(0 0 0)
(0 0 0)
(0 0 0)
(0 0 0)
(0 0 0)
(0 0 0)
(0 0 0)
(0 0 0)
(0 0 0)
(0 0 0)
(0 0 0)
(0 0 0)
(0 0 0)
(0 0 0)
(0 0 0)
(0 0 0)
(0 0 0)
(0 0 0)
(0 0 0)
(0 0 0)
(0 0 0)
(0 0 0)
(0 0 0)
(0 0 0)
(0 0 0)
(0 0 0)
(0 0 0)
(0 0 0)
(0 0 0)
(0 0 0)
(0 0 0)
(0 0 0)
(0 0 0)
(0 0 0)
(0 0 0)
(0 0 0)
(0 0 0)
(0 0 0)
(0 0 0)
(0 0 0)
(0 0 0)
(0 0 0)
(0 0 0)
(0 0 0)
(0 0 0)
(0 0 0)
(0 0 0)
(0 0 0)
(0 0 0)
(0 0 0)
(0 0 0)
(0 0 0)
(0 0 0)
(0 0 0)
(0 0 0)
(0 0 0)
(0 0 0)
(0 0 0)
(0 0 0)
(0 0 0)
(0 0 0)
(0 0 0)
(0 0 0)
(0 0 0)
(0 0 0)
(0 0 0)
(0 0 0)
(0 0 0)
(0 0 0)
(0 0 0)
(0 0 0)
(0 0 0)
(0 0 0)
(0 0 0)
(0 0 0)
(0 0 0)
(0 0 0)
(0 0 0)
(0 0 0)
(0 0 0)
(0 0 0)
(0 0 0)
(0 0 0)
(0 0 0)
(0 0 0)
(0 0 0)
(0 0 0)
(0 0 0)
(0 0 0)
(0 0 0)
(0 0 0)
(0 0 0)
(0 0 0)
(0 0 0)
(0 0 0)
(0 0 0)
(0 0 0)
(0 0 0)
(0 0 0)
(0 0 0)
(0 0 0)
(0 0 0)
(0 0 0)
(0 0 0)
(0 0 0)
(0 0 0)
(0 0 0)
(0 0 0)
(0 0 0)
(0 0 0)
(0 0 0)
(0 0 0)
(0 0 0)
(0 0 0)
(0 0 0)
(0 0 0)
(0 0 0)
(0 0 0)
(0 0 0)
(0 0 0)
(0 0 0)
(0 0 0)
(0 0 0)
(0 0 0)
(0 0 0)
(0 0 0)
(0 0 0)
(0 0 0)
(0 0 0)
(0 0 0)
(0 0 0)
(0 0 0)
(0 0 0)
(0 0 0)
(0 0 0)
(0 0 0)
(0 0 0)
(0 0 0)
(0 0 0)
(0 0 0)
(0 0 0)
(0 0 0)
(0 0 0)
(0 0 0)
(0 0 0)
(0 0 0)
(0 0 0)
(0 0 0)
(0 0 0)
(0 0 0)
(0 0 0)
(0 0 0)
(0 0 0)
(0 0 0)
(0 0 0)
(0 0 0)
(0 0 0)
(0 0 0)
(0 0 0)
(0 0 0)
(0 0 0)
(0 0 0)
(0 0 0)
(0 0 0)
(0 0 0)
(0 0 0)
(0 0 0)
(0 0 0)
(0 0 0)
(0 0 0)
(0 0 0)
(0 0 0)
(0 0 0)
(0 0 0)
(0 0 0)
(0 0 0)
(0 0 0)
(0 0 0)
(0 0 0)
(0 0 0)
(0 0 0)
(0 0 0)
(0 0 0)
(0 0 0)
(0 0 0)
(0 0 0)
(0 0 0)
(0 0 0)
(0 0 0)
(0 0 0)
(0 0 0)
(0 0 0)
(0 0 0)
(0 0 0)
(0 0 0)
(0 0 0)
(0 0 0)
(0 0 0)
(0 0 0)
(0 0 0)
(0 0 0)
(0 0 0)
(0 0 0)
(0 0 0)
(0 0 0)
(0 0 0)
(0 0 0)
(0 0 0)
(0 0 0)
(0 0 0)
(0 0 0)
(0 0 0)
(0 0 0)
(0 0 0)
(0 0 0)
(0 0 0)
(0 0 0)
(0 0 0)
(0 0 0)
(0 0 0)
(0 0 0)
(0 0 0)
(0 0 0)
(0 0 0)
(0 0 0)
(0 0 0)
(0 0 0)
(0 0 0)
(0 0 0)
(0 0 0)
(0 0 0)
(0 0 0)
(0 0 0)
(0 0 0)
(0 0 0)
(0 0 0)
(0 0 0)
(0 0 0)
(0 0 0)
(0 0 0)
(0 0 0)
(0 0 0)
(0 0 0)
(0 0 0)
(0 0 0)
(0 0 0)
(0 0 0)
(0 0 0)
(0 0 0)
(0 0 0)
(0 0 0)
(0 0 0)
(0 0 0)
(0 0 0)
(0 0 0)
(0 0 0)
(0 0 0)
(0 0 0)
(0 0 0)
(0 0 0)
(0 0 0)
(0 0 0)
(0 0 0)
(0 0 0)
(0 0 0)
(0 0 0)
(0 0 0)
(0 0 0)
(0 0 0)
(0 0 0)
(0 0 0)
(0 0 0)
(0 0 0)
(0 0 0)
(0 0 0)
(0 0 0)
(0 0 0)
(0 0 0)
(0 0 0)
(0 0 0)
(0 0 0)
(0 0 0)
(0 0 0)
(0 0 0)
(0 0 0)
(0 0 0)
(0 0 0)
(0 0 0)
(0 0 0)
(0 0 0)
(0 0 0)
(0 0 0)
(0 0 0)
(0 0 0)
(0 0 0)
(0 0 0)
(0 0 0)
(0 0 0)
(-1.01144662e-20 1.14365069e-08 -1.92335663e-21)
(-2.04369659e-20 2.31081016e-08 -3.88626677e-21)
(-3.13515917e-20 3.54488656e-08 -5.96176306e-21)
(-4.33251358e-20 4.89863491e-08 -8.23860189e-21)
(-5.68200409e-20 6.42432003e-08 -1.08047075e-20)
(-7.23003018e-20 8.17438176e-08 -1.37482922e-20)
(-9.02341355e-20 1.02017364e-07 -1.71583621e-20)
(-1.11092815e-19 1.25596447e-07 -2.11244922e-20)
(-1.35345108e-19 1.53010836e-07 -2.57357655e-20)
(-1.63446828e-19 1.84775657e-07 -3.10787839e-20)
(-1.95825147e-19 2.21373662e-07 -3.72346806e-20)
(-2.32857521e-19 2.63231419e-07 -4.42751115e-20)
(-2.74845459e-19 3.10689663e-07 -5.22572658e-20)
(-3.21983806e-19 3.63968587e-07 -6.12180277e-20)
(-3.74326847e-19 4.23129531e-07 -7.11675354e-20)
(-4.317532e-19 4.88035306e-07 -8.20825162e-20)
(-4.93932218e-19 5.58312218e-07 -9.38999136e-20)
(-5.60295269e-19 6.33317613e-07 -1.06511448e-19)
(-6.3001576e-19 7.12117296e-07 -1.19759845e-19)
(-7.02001903e-19 7.93477354e-07 -1.33437489e-19)
(-7.74905936e-19 8.75874578e-07 -1.47288209e-19)
(-8.47152624e-19 9.57528672e-07 -1.61012715e-19)
(-9.16988388e-19 1.03645778e-06 -1.7427796e-19)
(-9.82550426e-19 1.11055659e-06 -1.86730274e-19)
(-1.04195289e-18 1.17769376e-06 -1.98011727e-19)
(-1.09338485e-18 1.2358226e-06 -2.07778711e-19)
(-1.13521312e-18 1.28309729e-06 -2.15721427e-19)
(-1.1660821e-18 1.31798573e-06 -2.21582793e-19)
(0 0 0)
(-2.04400655e-20 2.31116181e-08 -3.88685612e-21)
(-4.12951083e-20 4.66921553e-08 -7.85261078e-21)
(-6.33470876e-20 7.16253447e-08 -1.20459465e-20)
(-8.75494984e-20 9.89887974e-08 -1.66481595e-20)
(-1.14846929e-19 1.29850081e-07 -2.18388412e-20)
(-1.46187979e-19 1.65281286e-07 -2.77983301e-20)
(-1.8253139e-19 2.06365951e-07 -3.4708873e-20)
(-2.24844263e-19 2.54197045e-07 -4.27542784e-20)
(-2.74091213e-19 3.09864714e-07 -5.21178474e-20)
(-3.31213446e-19 3.74432638e-07 -6.29783873e-20)
(-3.97096965e-19 4.48902109e-07 -7.55041586e-20)
(-4.72529579e-19 5.3416344e-07 -8.98446934e-20)
(-5.58147039e-19 6.30935101e-07 -1.06120551e-19)
(-6.54369646e-19 7.39692075e-07 -1.24411266e-19)
(-7.61331883e-19 8.60586328e-07 -1.44741982e-19)
(-8.78809082e-19 9.93363932e-07 -1.67069524e-19)
(-1.0061467e-18 1.13728513e-06 -1.91268994e-19)
(-1.14219916e-18 1.29105521e-06 -2.17122188e-19)
(-1.28528641e-18 1.4527754e-06 -2.44309392e-19)
(-1.43317651e-18 1.61992324e-06 -2.72406164e-19)
(-1.58310248e-18 1.78937153e-06 -3.00886579e-19)
(-1.73181921e-18 1.95745273e-06 -3.29134137e-19)
(-1.87570391e-18 2.12007244e-06 -3.56460879e-19)
(-2.0108988e-18 2.2728707e-06 -3.82134519e-19)
(-2.13349013e-18 2.41142428e-06 -4.05412428e-19)
(-2.23971253e-18 2.53147762e-06 -4.25580376e-19)
(-2.32616351e-18 2.62918528e-06 -4.41993177e-19)
(-2.39001083e-18 2.70134627e-06 -4.54113925e-19)
(0 0 0)
(-3.13611303e-20 3.54596973e-08 -5.9635766e-21)
(-6.33568089e-20 7.16363942e-08 -1.20477947e-20)
(-9.72049781e-20 1.09906553e-07 -1.84842304e-20)
(-1.34396109e-19 1.51954669e-07 -2.55562737e-20)
(-1.76408496e-19 1.99451507e-07 -3.35449795e-20)
(-2.24730336e-19 2.54079005e-07 -4.27332582e-20)
(-2.80871017e-19 3.17543026e-07 -5.34080119e-20)
(-3.46359856e-19 3.91571931e-07 -6.58598821e-20)
(-4.2273047e-19 4.77898927e-07 -8.03802649e-20)
(-5.11489082e-19 5.78226243e-07 -9.72552666e-20)
(-6.14065338e-19 6.94169565e-07 -1.16756339e-19)
(-7.31744911e-19 8.27181861e-07 -1.39127447e-19)
(-8.65584156e-19 9.78456942e-07 -1.64568837e-19)
(-1.01630864e-18 1.14881478e-06 -1.93217743e-19)
(-1.18419939e-18 1.33857293e-06 -2.25126774e-19)
(-1.3689729e-18 1.54741098e-06 -2.60241143e-19)
(-1.56966394e-18 1.77423799e-06 -2.98376444e-19)
(-1.78452215e-18 2.01707573e-06 -3.39199084e-19)
(-2.01093581e-18 2.27297245e-06 -3.82211921e-19)
(-2.245397e-18 2.53796359e-06 -4.26747772e-19)
(-2.48352163e-18 2.80709434e-06 -4.71973375e-19)
(-2.72013534e-18 3.07451676e-06 -5.16905839e-19)
(-2.94943121e-18 3.33366805e-06 -5.6044272e-19)
(-3.1651985e-18 3.57752902e-06 -6.01405497e-19)
(-3.36111289e-18 3.79895213e-06 -6.38594672e-19)
(-3.53107037e-18 3.99103882e-06 -6.70853035e-19)
(-3.66953912e-18 4.14753718e-06 -6.97132273e-19)
(-3.77189906e-18 4.26322568e-06 -7.16557165e-19)
(0 0 0)
(-4.33435998e-20 4.90073405e-08 -8.24211219e-21)
(-8.7573812e-20 9.90164702e-08 -1.66527817e-20)
(-1.34413024e-19 1.51973953e-07 -2.55594893e-20)
(-1.85975543e-19 2.10269339e-07 -3.53642252e-20)
(-2.44363662e-19 2.7627864e-07 -4.64666632e-20)
(-3.11702464e-19 3.52403597e-07 -5.92707638e-20)
(-3.90159073e-19 4.41093432e-07 -7.41884175e-20)
(-4.81943855e-19 5.44846212e-07 -9.16396518e-20)
(-5.89290844e-19 6.66186725e-07 -1.12048882e-19)
(-7.14414706e-19 8.07617854e-07 -1.358367e-19)
(-8.59441899e-19 9.7154279e-07 -1.63406754e-19)
(-1.02631448e-18 1.16015631e-06 -1.95127431e-19)
(-1.21666637e-18 1.37530496e-06 -2.3130831e-19)
(-1.43167419e-18 1.61831846e-06 -2.72171796e-19)
(-1.6718875e-18 1.8898178e-06 -3.17820868e-19)
(-1.93704711e-18 2.18951e-06 -3.682046e-19)
(-2.22590409e-18 2.51598344e-06 -4.23083856e-19)
(-2.53605607e-18 2.86652292e-06 -4.82000344e-19)
(-2.86382116e-18 3.23696717e-06 -5.44252862e-19)
(-3.20417145e-18 3.6216337e-06 -6.08884939e-19)
(-3.55074809e-18 4.01333588e-06 -6.74687975e-19)
(-3.89597612e-18 4.4035127e-06 -7.40223346e-19)
(-4.23129028e-18 4.78248406e-06 -8.03865502e-19)
(-4.54747224e-18 5.13983178e-06 -8.63866107e-19)
(-4.8350862e-18 5.46489202e-06 -9.18436697e-19)
(-5.08498576e-18 5.74732797e-06 -9.65844654e-19)
(-5.28885202e-18 5.97773801e-06 -1.00451494e-18)
(-5.43971434e-18 6.14824421e-06 -1.0331284e-18)
(0 0 0)
(-5.68494918e-20 6.42767238e-08 -1.08103063e-20)
(-1.14889898e-19 1.29899054e-07 -2.18470094e-20)
(-1.76448351e-19 1.99497009e-07 -3.35525553e-20)
(-2.4438853e-19 2.7630708e-07 -4.64713897e-20)
(-3.21568233e-19 3.63559149e-07 -6.11467877e-20)
(-4.10892207e-19 4.64536134e-07 -7.81308751e-20)
(-5.15343662e-19 5.82609587e-07 -9.79905907e-20)
(-6.3799101e-19 7.21247317e-07 -1.21308928e-19)
(-7.81965828e-19 8.83988491e-07 -1.48680701e-19)
(-9.50407992e-19 1.07438164e-06 -1.80702055e-19)
(-1.14637416e-18 1.29588122e-06 -2.17953009e-19)
(-1.3727066e-18 1.55169938e-06 -2.60972458e-19)
(-1.63186109e-18 1.84461148e-06 -3.1022541e-19)
(-1.92569571e-18 2.17671729e-06 -3.66062804e-19)
(-2.25522618e-18 2.54916461e-06 -4.2867503e-19)
(-2.62035915e-18 2.9618477e-06 -4.98041308e-19)
(-3.01962051e-18 3.41310033e-06 -5.73878233e-19)
(-3.44990273e-18 3.89941018e-06 -6.55592036e-19)
(-3.90626078e-18 4.41518825e-06 -7.42240194e-19)
(-4.38179032e-18 4.95263128e-06 -8.32508795e-19)
(-4.86762256e-18 5.50171592e-06 -9.24712113e-19)
(-5.3530659e-18 6.05035894e-06 -1.01682006e-18)
(-5.82591451e-18 6.58476595e-06 -1.10651725e-18)
(-6.27292811e-18 7.08997363e-06 -1.19129428e-18)
(-6.68046614e-18 7.55056647e-06 -1.26856805e-18)
(-7.03523701e-18 7.95152337e-06 -1.33582349e-18)
(-7.32510155e-18 8.27912563e-06 -1.39076523e-18)
(-7.53985527e-18 8.52184089e-06 -1.4314649e-18)
(0 0 0)
(-7.23426999e-20 8.17921378e-08 -1.37563519e-20)
(-1.46253696e-19 1.65356283e-07 -2.7810822e-20)
(-2.24799468e-19 2.54158033e-07 -4.27463981e-20)
(-3.11760687e-19 3.52470263e-07 -5.92818294e-20)
(-4.10927562e-19 4.64576669e-07 -7.81375942e-20)
(-5.26178215e-19 5.94860275e-07 -1.00050763e-19)
(-6.61528703e-19 7.47859951e-07 -1.25784458e-19)
(-8.21150095e-19 9.28289711e-07 -1.56131031e-19)
(-1.00934662e-18 1.14101403e-06 -1.91907828e-19)
(-1.23048899e-18 1.39097248e-06 -2.33944416e-19)
(-1.4888969e-18 1.68304693e-06 -2.83060124e-19)
(-1.78866512e-18 2.02186504e-06 -3.40030876e-19)
(-2.13342991e-18 2.41153617e-06 -4.05544677e-19)
(-2.52607613e-18 2.85532042e-06 -4.8014588e-19)
(-2.96839124e-18 3.35523753e-06 -5.64169413e-19)
(-3.46067993e-18 3.91163133e-06 -6.57667665e-19)
(-4.00136231e-18 4.5227157e-06 -7.60334406e-19)
(-4.58658873e-18 5.18413927e-06 -8.71432088e-19)
(-5.20991417e-18 5.88861749e-06 -9.89730682e-19)
(-5.86208246e-18 6.62568891e-06 -1.11346763e-18)
(-6.53097402e-18 7.38165623e-06 -1.24033899e-18)
(-7.20176615e-18 8.13976756e-06 -1.36753096e-18)
(-7.85734182e-18 8.88067846e-06 -1.49179842e-18)
(-8.47895932e-18 9.58320882e-06 -1.60959253e-18)
(-9.04716329e-18 1.02253723e-05 -1.71723351e-18)
(-9.54288102e-18 1.07856153e-05 -1.81111777e-18)
(-9.9486129e-18 1.12441619e-05 -1.88794211e-18)
(-1.02496005e-17 1.15843339e-05 -1.94492315e-18)
(0 0 0)
(-9.02914641e-20 1.02082775e-07 -1.71692594e-20)
(-1.82624751e-19 2.0647261e-07 -3.47266184e-20)
(-2.80977782e-19 3.17665184e-07 -5.34283035e-20)
(-3.9026218e-19 4.41211567e-07 -7.42080126e-20)
(-5.1542857e-19 5.82706967e-07 -9.80067262e-20)
(-6.61580475e-19 7.47919357e-07 -1.25794296e-19)
(-8.34051717e-19 9.42876936e-07 -1.58584072e-19)
(-1.03844133e-18 1.17390759e-06 -1.97439431e-19)
(-1.28059633e-18 1.44761939e-06 -2.43470348e-19)
(-1.56653446e-18 1.77081332e-06 -2.97818534e-19)
(-1.90229776e-18 2.15031774e-06 -3.61629396e-19)
(-2.29372728e-18 2.59273371e-06 -4.36008977e-19)
(-2.74615158e-18 3.10408301e-06 -5.21964551e-19)
(-3.2639869e-18 3.68935604e-06 -6.2032844e-19)
(-3.85025387e-18 4.3519658e-06 -7.31666143e-19)
(-4.50602711e-18 5.09312567e-06 -8.56171873e-19)
(-5.22984675e-18 5.91118453e-06 -9.93557199e-19)
(-6.01713701e-18 6.80096967e-06 -1.14294139e-18)
(-6.85969241e-18 7.75320636e-06 -1.30275513e-18)
(-7.74530666e-18 8.75409867e-06 -1.47067169e-18)
(-8.6576265e-18 9.78516448e-06 -1.64358133e-18)
(-9.57631031e-18 1.0823415e-05 -1.81762348e-18)
(-1.04775541e-17 1.18419494e-05 -1.98828854e-18)
(-1.13350138e-17 1.2810997e-05 -2.15059396e-18)
(-1.21211048e-17 1.36993858e-05 -2.29933069e-18)
(-1.28085993e-17 1.44763478e-05 -2.42936457e-18)
(-1.33723881e-17 1.51135089e-05 -2.53596717e-18)
(-1.37912236e-17 1.55868592e-05 -2.61514202e-18)
(0 0 0)
(-1.11166579e-19 1.25680706e-07 -2.11385125e-20)
(-2.24971559e-19 2.54342589e-07 -4.27784724e-20)
(-3.46516967e-19 3.91751756e-07 -6.58897413e-20)
(-4.82109919e-19 5.45036464e-07 -9.16712106e-20)
(-6.38147794e-19 7.2142705e-07 -1.21338722e-19)
(-8.21278928e-19 9.28437438e-07 -1.56155511e-19)
(-1.03851976e-18 1.1739975e-06 -1.97454333e-19)
(-1.29731998e-18 1.46652671e-06 -2.46649652e-19)
(-1.60555651e-18 1.81492725e-06 -3.05236241e-19)
(-1.97144888e-18 2.22848843e-06 -3.74772788e-19)
(-2.40338302e-18 2.71668739e-06 -4.56848002e-19)
(-2.90962549e-18 3.28886616e-06 -5.53025888e-19)
(-3.49791539e-18 3.95377031e-06 -6.64767746e-19)
(-4.17492555e-18 4.71893989e-06 -7.93329407e-19)
(-4.94559544e-18 5.58995556e-06 -9.3963429e-19)
(-5.81235267e-18 6.56955875e-06 -1.10412563e-18)
(-6.7742591e-18 7.65668673e-06 -1.2866049e-18)
(-7.82614074e-18 8.84548949e-06 -1.48606795e-18)
(-8.95778626e-18 1.01244244e-05 -1.70055502e-18)
(-1.01533237e-17 1.1475552e-05 -1.92703556e-18)
(-1.13909013e-17 1.28741762e-05 -2.16135161e-18)
(-1.26428012e-17 1.42889724e-05 -2.39824357e-18)
(-1.38760923e-17 1.56827265e-05 -2.63147804e-18)
(-1.50538851e-17 1.70137523e-05 -2.85408836e-18)
(-1.61371748e-17 1.82379745e-05 -3.05872416e-18)
(-1.70871665e-17 1.93115559e-05 -3.23808939e-18)
(-1.78678821e-17 2.0193843e-05 -3.38543016e-18)
(-1.84487697e-17 2.08503137e-05 -3.49502057e-18)
(0 0 0)
(-1.35433692e-19 1.53112173e-07 -2.57526011e-20)
(-2.74260072e-19 3.10057876e-07 -5.21499389e-20)
(-4.22958861e-19 4.78160248e-07 -8.04236694e-20)
(-5.8954973e-19 6.66483075e-07 -1.1209808e-19)
(-7.82231715e-19 8.84292938e-07 -1.48731227e-19)
(-1.00959514e-18 1.14129859e-06 -1.91955052e-19)
(-1.2807961e-18 1.44784813e-06 -2.43508305e-19)
(-1.60567573e-18 1.81506373e-06 -3.05258893e-19)
(-1.99477191e-18 2.25485487e-06 -3.79205668e-19)
(-2.45923375e-18 2.77982154e-06 -4.67461609e-19)
(-3.01061944e-18 3.40302574e-06 -5.72214716e-19)
(-3.66054266e-18 4.13759163e-06 -6.95660003e-19)
(-4.42014738e-18 4.99611193e-06 -8.3989886e-19)
(-5.29939202e-18 5.98983867e-06 -1.00680223e-18)
(-6.30613926e-18 7.12765455e-06 -1.1978372e-18)
(-7.44506615e-18 8.41484126e-06 -1.4138599e-18)
(-8.71643681e-18 9.85169272e-06 -1.6548834e-18)
(-1.01148127e-17 1.14320579e-05 -1.91983499e-18)
(-1.16278157e-17 1.31419436e-05 -2.20632521e-18)
(-1.32351026e-17 1.49583564e-05 -2.51045902e-18)
(-1.49077419e-17 1.68485988e-05 -2.82672492e-18)
(-1.66081966e-17 1.87702508e-05 -3.14800011e-18)
(-1.82910959e-17 2.06720421e-05 -3.46570487e-18)
(-1.9904916e-17 2.24957523e-05 -3.77012684e-18)
(-2.13945803e-17 2.41791478e-05 -4.05091481e-18)
(-2.27048403e-17 2.56598027e-05 -4.29771427e-18)
(-2.37841408e-17 2.68794654e-05 -4.50088765e-18)
(-2.45885373e-17 2.77884838e-05 -4.65223877e-18)
(0 0 0)
(-1.63535461e-19 1.84877426e-07 -3.10956248e-20)
(-3.31430829e-19 3.74681396e-07 -6.30196977e-20)
(-5.11826188e-19 5.78611541e-07 -9.7319331e-20)
(-7.14815579e-19 8.08076099e-07 -1.3591288e-19)
(-9.50844975e-19 1.07488115e-06 -1.80785093e-19)
(-1.23093222e-18 1.39147901e-06 -2.34028636e-19)
(-1.56692912e-18 1.77126441e-06 -2.9789352e-19)
(-1.97175479e-18 2.22883809e-06 -3.74830904e-19)
(-2.45941557e-18 2.78002929e-06 -4.67496147e-19)
(-3.04492978e-18 3.44181042e-06 -5.78733518e-19)
(-3.74411791e-18 4.23205988e-06 -7.11535109e-19)
(-4.57317478e-18 5.16907812e-06 -8.68958046e-19)
(-5.5480095e-18 6.27084153e-06 -1.05399745e-18)
(-6.68330794e-18 7.55394271e-06 -1.26940674e-18)
(-7.99130715e-18 9.03220527e-06 -1.51746351e-18)
(-9.48028598e-18 1.07149782e-05 -1.79968249e-18)
(-1.11528205e-17 1.26051649e-05 -2.11648538e-18)
(-1.30038915e-17 1.46970849e-05 -2.46684504e-18)
(-1.50189972e-17 1.69743425e-05 -2.84793391e-18)
(-1.71724956e-17 1.94079542e-05 -3.25481981e-18)
(-1.94264625e-17 2.195506e-05 -3.6802634e-18)
(-2.17303868e-17 2.455858e-05 -4.11467675e-18)
(-2.4022009e-17 2.71481619e-05 -4.54629868e-18)
(-2.62295283e-17 2.96426766e-05 -4.96162541e-18)
(-2.82752456e-17 3.19543327e-05 -5.34610427e-18)
(-3.00804729e-17 3.39942244e-05 -5.68505471e-18)
(-3.15712776e-17 3.56788202e-05 -5.96473264e-18)
(-3.26843847e-17 3.69366313e-05 -6.17341299e-18)
(0 0 0)
(-1.95827796e-19 2.21378659e-07 -3.7235167e-20)
(-3.97362598e-19 4.49206251e-07 -7.55546319e-20)
(-6.14589325e-19 6.94767352e-07 -1.16855919e-19)
(-8.60060886e-19 9.72249189e-07 -1.63524384e-19)
(-1.14708025e-18 1.29668684e-06 -2.18087182e-19)
(-1.48967133e-18 1.68393004e-06 -2.83207276e-19)
(-1.90301396e-18 2.1511347e-06 -3.61765469e-19)
(-2.40398902e-18 2.71737886e-06 -4.56963119e-19)
(-3.01109293e-18 3.40356588e-06 -5.72304643e-19)
(-3.74440115e-18 4.23238281e-06 -7.1158889e-19)
(-4.62541464e-18 5.22812656e-06 -8.7887781e-19)
(-5.676539e-18 6.4161148e-06 -1.07839481e-18)
(-6.9202869e-18 7.82178422e-06 -1.31437018e-18)
(-8.37806634e-18 9.46932072e-06 -1.59080767e-18)
(-1.00685567e-17 1.13798242e-05 -1.91117328e-18)
(-1.20056413e-17 1.35689725e-05 -2.27800114e-18)
(-1.41959604e-17 1.60442567e-05 -2.69242989e-18)
(-1.66361675e-17 1.88018818e-05 -3.1536871e-18)
(-1.9310081e-17 2.18235498e-05 -3.65855987e-18)
(-2.21860476e-17 2.50734823e-05 -4.2009131e-18)
(-2.52149393e-17 2.84961585e-05 -4.77133563e-18)
(-2.83292824e-17 3.20153326e-05 -5.35700718e-18)
(-3.14440252e-17 3.55349025e-05 -5.94187703e-18)
(-3.44593556e-17 3.89420932e-05 -6.50722483e-18)
(-3.72657562e-17 4.21131683e-05 -7.03262841e-18)
(-3.97511204e-17 4.4921469e-05 -7.49729632e-18)
(-4.18093052e-17 4.72470767e-05 -7.88164198e-18)
(-4.3349069e-17 4.89869096e-05 -8.16890481e-18)
(0 0 0)
(-2.32905642e-19 2.6328831e-07 -4.42842391e-20)
(-4.72892395e-19 5.34578402e-07 -8.99136349e-20)
(-7.32331248e-19 8.27851536e-07 -1.39238868e-19)
(-1.02705056e-18 1.16099688e-06 -1.95267297e-19)
(-1.3738154e-18 1.55296238e-06 -2.61183148e-19)
(-1.79003862e-18 2.02342779e-06 -3.40291855e-19)
(-2.29497515e-18 2.59415442e-06 -4.36246052e-19)
(-2.91071192e-18 3.29010369e-06 -5.53232243e-19)
(-3.66150468e-18 4.13868715e-06 -6.95842683e-19)
(-4.57392659e-18 5.16993397e-06 -8.69100759e-19)
(-5.67699932e-18 6.41663847e-06 -1.07848216e-18)
(-7.00145069e-18 7.9135205e-06 -1.32976908e-18)
(-8.57885463e-18 9.6962529e-06 -1.62888111e-18)
(-1.04400607e-17 1.17996862e-05 -1.98157081e-18)
(-1.26130983e-17 1.42554802e-05 -2.39301966e-18)
(-1.51203641e-17 1.70889264e-05 -2.86729998e-18)
(-1.79752541e-17 2.03151428e-05 -3.40673537e-18)
(-2.11782386e-17 2.39346414e-05 -4.01116302e-18)
(-2.47126142e-17 2.79285294e-05 -4.6771455e-18)
(-2.85403729e-17 3.22538453e-05 -5.39721956e-18)
(-3.25987978e-17 3.68397137e-05 -6.15929854e-18)
(-3.67985507e-17 4.1585187e-05 -6.94637152e-18)
(-4.10240709e-17 4.63596965e-05 -7.73664645e-18)
(-4.51370197e-17 5.10069439e-05 -8.50426058e-18)
(-4.89832007e-17 5.53527193e-05 -9.22061925e-18)
(-5.2402838e-17 5.92165126e-05 -9.85631884e-18)
(-5.52433385e-17 6.24259308e-05 -1.03834766e-17)
(-5.73728987e-17 6.483207e-05 -1.07781634e-17)
(0 0 0)
(-2.75025427e-19 3.10896174e-07 -5.22914608e-20)
(-5.58567808e-19 6.31416691e-07 -1.06200507e-19)
(-8.66171158e-19 9.79128978e-07 -1.64680374e-19)
(-1.21757142e-18 1.37633858e-06 -2.31480278e-19)
(-1.63332678e-18 1.84628032e-06 -3.10503914e-19)
(-2.13507235e-18 2.41340573e-06 -4.0585675e-19)
(-2.74771381e-18 3.10586217e-06 -5.22261306e-19)
(-3.49972808e-18 3.9558321e-06 -6.65111976e-19)
(-4.4219615e-18 4.99817418e-06 -8.40243272e-19)
(-5.54955724e-18 6.27260082e-06 -1.05429116e-18)
(-6.92153974e-18 7.82320759e-06 -1.31460782e-18)
(-8.57958325e-18 9.69708047e-06 -1.62901923e-18)
(-1.05675961e-17 1.19438252e-05 -2.00573592e-18)
(-1.29295044e-17 1.46130621e-05 -2.4529202e-18)
(-1.57067326e-17 1.77515792e-05 -2.97819565e-18)
(-1.89343228e-17 2.1398948e-05 -3.58790046e-18)
(-2.26364542e-17 2.55824624e-05 -4.28623309e-18)
(-2.68209153e-17 3.03108959e-05 -5.07421146e-18)
(-3.14728347e-17 3.55674208e-05 -5.94851134e-18)
(-3.65483092e-17 4.13024127e-05 -6.90031255e-18)
(-4.19687641e-17 4.7427081e-05 -7.91431667e-18)
(-4.76172093e-17 5.38092405e-05 -8.96815501e-18)
(-5.33376887e-17 6.02726895e-05 -1.00324198e-17)
(-5.89391922e-17 6.66016285e-05 -1.10715306e-17)
(-6.42049429e-17 7.25511513e-05 -1.20455644e-17)
(-6.89071568e-17 7.7863918e-05 -1.29130217e-17)
(-7.28261198e-17 8.22917068e-05 -1.36342754e-17)
(-7.57710305e-17 8.56189609e-05 -1.4175229e-17)
(0 0 0)
(-3.22166441e-19 3.64178751e-07 -6.12527279e-20)
(-6.54758917e-19 7.40139304e-07 -1.24485229e-19)
(-1.01693345e-18 1.14953135e-06 -1.93336458e-19)
(-1.43267154e-18 1.61945871e-06 -2.72361301e-19)
(-1.92710478e-18 2.17832491e-06 -3.66330537e-19)
(-2.52759426e-18 2.85705264e-06 -4.80434301e-19)
(-3.265794e-18 3.69141548e-06 -6.20671668e-19)
(-4.1771336e-18 4.72145236e-06 -7.93748698e-19)
(-5.30176778e-18 5.99253982e-06 -1.00725316e-18)
(-6.68617358e-18 7.55719587e-06 -1.26995031e-18)
(-8.38077702e-18 9.47239637e-06 -1.5913216e-18)
(-1.04420152e-17 1.1801904e-05 -1.98194102e-18)
(-1.29306422e-17 1.4614353e-05 -2.45313552e-18)
(-1.59083134e-17 1.79793878e-05 -3.01631402e-18)
(-1.94354984e-17 2.1965306e-05 -3.68254727e-18)
(-2.35655612e-17 2.66323707e-05 -4.4614225e-18)
(-2.83393448e-17 3.20266945e-05 -5.36000133e-18)
(-3.37774748e-17 3.81715476e-05 -6.38136532e-18)
(-3.98711785e-17 4.50569901e-05 -7.52291403e-18)
(-4.65726327e-17 5.26289696e-05 -8.77462429e-18)
(-5.37858161e-17 6.07789897e-05 -1.01174701e-17)
(-6.13596673e-17 6.933638e-05 -1.15223467e-17)
(-6.90855193e-17 7.80653961e-05 -1.29498542e-17)
(-7.6700944e-17 8.66695603e-05 -1.43512929e-17)
(-8.39018326e-17 9.48053059e-05 -1.56711293e-17)
(-9.03633919e-17 0.000102105697 -1.6850954e-17)
(-9.57686842e-17 0.000108212668 -1.78345872e-17)
(-9.98407872e-17 0.000112813362 -1.85735917e-17)
(0 0 0)
(-3.7449765e-19 4.23327008e-07 -7.11999834e-20)
(-7.61687583e-19 8.60996954e-07 -1.44809557e-19)
(-1.18476902e-18 1.3392291e-06 -2.25234994e-19)
(-1.67272697e-18 1.89078213e-06 -3.17980353e-19)
(-2.25636597e-18 2.55047089e-06 -4.28891563e-19)
(-2.96982702e-18 3.35688015e-06 -5.64442144e-19)
(-3.85218135e-18 4.35416518e-06 -7.32032208e-19)
(-4.94783025e-18 5.59250254e-06 -9.40058625e-19)
(-6.30900546e-18 7.13091458e-06 -1.19838111e-18)
(-7.99486501e-18 9.03624573e-06 -1.51813839e-18)
(-1.00721589e-17 1.13839128e-05 -1.9118559e-18)
(-1.26171266e-17 1.42600475e-05 -2.39378198e-18)
(-1.57098509e-17 1.77551144e-05 -2.97878511e-18)
(-1.94367725e-17 2.19667523e-05 -3.68278738e-18)
(-2.3885801e-17 2.6994251e-05 -4.52179206e-18)
(-2.9135851e-17 3.29267306e-05 -5.50985349e-18)
(-3.52528427e-17 3.9838628e-05 -6.65827857e-18)
(-4.22787231e-17 4.77772986e-05 -7.97353727e-18)
(-5.02180123e-17 5.67478219e-05 -9.45476072e-18)
(-5.90235855e-17 6.66969423e-05 -1.10911851e-17)
(-6.85820634e-17 7.74965644e-05 -1.28596474e-17)
(-7.87019313e-17 8.8930329e-05 -1.47227407e-17)
(-8.91071057e-17 0.000100686339 -1.66281226e-17)
(-9.94394241e-17 0.000112359966 -1.85095527e-17)
(-1.09273559e-16 0.000123470696 -2.0290146e-17)
(-1.18146427e-16 0.000133495349 -2.18880006e-17)
(-1.25599845e-16 0.000141916276 -2.32237499e-17)
(-1.31230565e-16 0.000148277885 -2.42288872e-17)
(0 0 0)
(-4.31907422e-19 4.88214779e-07 -8.21118089e-20)
(-8.79126758e-19 9.9373302e-07 -1.67129864e-19)
(-1.36947536e-18 1.54799332e-06 -2.60336585e-19)
(-1.93776873e-18 2.19034383e-06 -3.68341672e-19)
(-2.62133615e-18 2.96297325e-06 -4.98226882e-19)
(-3.46195844e-18 3.91309998e-06 -6.57910483e-19)
(-4.50770891e-18 5.09505165e-06 -8.56491231e-19)
(-5.81453438e-18 6.57205044e-06 -1.10453979e-18)
(-7.44810765e-18 8.41830461e-06 -1.41443704e-18)
(-9.48372898e-18 1.07188946e-05 -1.80033554e-18)
(-1.20098669e-17 1.35737718e-05 -2.27880162e-18)
(-1.51251363e-17 1.70943411e-05 -2.8682032e-18)
(-1.89378961e-17 2.1403005e-05 -3.58857497e-18)
(-2.35684957e-17 2.66357015e-05 -4.46197341e-18)
(-2.91387743e-17 3.29300426e-05 -5.51040113e-18)
(-3.57637818e-17 4.04159641e-05 -6.75414177e-18)
(-4.35466794e-17 4.92099726e-05 -8.21070195e-18)
(-5.25636198e-17 5.93980707e-05 -9.89190018e-18)
(-6.28438017e-17 7.10132291e-05 -1.18001303e-17)
(-7.43498473e-17 8.40132217e-05 -1.39248424e-17)
(-8.6954407e-17 9.82541908e-05 -1.62385502e-17)
(-1.00420551e-16 0.000113468488 -1.86938418e-17)
(-1.14388402e-16 0.000129249564 -2.12218632e-17)
(-1.28373549e-16 0.00014505016 -2.37331929e-17)
(-1.41783752e-16 0.000160201182 -2.61220171e-17)
(-1.53959066e-16 0.000173957023 -2.82740639e-17)
(-1.64235324e-16 0.000185567292 -3.00777568e-17)
(-1.72022692e-16 0.00019436557 -3.14368073e-17)
(0 0 0)
(-4.94069164e-19 5.58472951e-07 -9.39259186e-20)
(-1.00642718e-18 1.13761371e-06 -1.91322257e-19)
(-1.57010443e-18 1.77475252e-06 -2.98460093e-19)
(-2.22653194e-18 2.51671417e-06 -4.23203089e-19)