/*--------------------------------*- C++ -*----------------------------------*\
| =========                 |                                                 |
| \\      /  F ield         | foam-extend: Open Source CFD                    |
|  \\    /   O peration     | Version:     4.1                                |
|   \\  /    A nd           | Web:         http://www.foam-extend.org         |
|    \\/     M anipulation  |                                                 |
\*---------------------------------------------------------------------------*/
FoamFile
{
    version     2.0;
    format      ascii;
    class       volScalarField;
    location    "0.1";
    object      rAU;
}
// * * * * * * * * * * * * * * * * * * * * * * * * * * * * * * * * * * * * * //

dimensions      [0 0 1 0 0 0 0];

internalField   nonuniform List<scalar> 
35840
(
0.000714285735
0.000836637389
0.00092454786
0.00099961135
0.00105386234
0.00109046286
0.0011150505
0.00113179985
0.00114334114
0.00115146774
0.00115738045
0.00116182662
0.00116526466
0.00116798557
0.00117018207
0.00117198752
0.00117349829
0.00117473292
0.00117579423
0.00117674238
0.00117760228
0.00117839124
0.00117912033
0.00117979611
0.00118042213
0.00118100062
0.0011815337
0.00118202422
0.000739083744
0.000819497592
0.000880891835
0.000951171692
0.00101612173
0.0010694444
0.00111047265
0.00114133162
0.00116445094
0.00118187822
0.00119521131
0.00120560177
0.00121384497
0.00122049483
0.00122594672
0.00123048867
0.00123433344
0.00123757967
0.00124039729
0.00124289238
0.00124493918
0.00124677514
0.00124843906
0.00124994986
0.00125132192
0.0012525672
0.0012536971
0.00125472369
0.000753175608
0.000833323093
0.000878398748
0.000929313617
0.000978231783
0.00102099765
0.00105596863
0.00108371691
0.00110560826
0.00112296097
0.00113685223
0.0011480997
0.00115730371
0.00116491208
0.00117126988
0.00117664812
0.00118125973
0.00118526894
0.00118879787
0.00119193276
0.00119447093
0.00119651253
0.00119835815
0.0012000334
0.00120155952
0.00120295451
0.00120423422
0.00120541345
0.00076030888
0.000850113165
0.000895624487
0.000941326073
0.000982257032
0.00101675999
0.0010445846
0.00106666274
0.00108429498
0.00109859319
0.00111037282
0.00112020041
0.00112846934
0.00113547012
0.00114143616
0.00114656479
0.00115102346
0.00115494955
0.00115844908
0.00116159716
0.00116421966
0.00116607903
0.00116777583
0.00116933735
0.00117078733
0.00117214566
0.00117342852
0.00117464905
0.000763382347
0.000860199624
0.000909776583
0.000956405039
0.000995502539
0.00102638996
0.00104994785
0.00106785385
0.00108176551
0.00109292782
0.00110215951
0.00110996112
0.001116634
0.00112237518
0.00112733593
0.00113164858
0.00113543341
0.00113879594
0.00114182165
0.0011445724
0.00114664215
0.00114807954
0.0011494186
0.00115068483
0.00115190155
0.00115308831
0.00115426007
0.00115542712
0.000765073808
0.000866246913
0.000919350433
0.0009680207
0.00100751892
0.00103742481
0.00105913631
0.00107482067
0.00108645834
0.00109547982
0.00110279578
0.00110893592
0.00111419266
0.00111873358
0.00112267197
0.00112610235
0.00112911277
0.00113178441
0.00113418652
0.00113627674
0.00113744435
0.00113836869
0.00113926037
0.00114014271
0.00114103829
0.00114196665
0.00114294251
0.00114397494
0.000766121056
0.000870081497
0.000925798519
0.000976365811
0.00101678904
0.00104670374
0.00106775121
0.00108238759
0.00109281313
0.00110059738
0.00110673241
0.00111179029
0.00111607934
0.00111976489
0.00112294619
0.00112569761
0.00112808615
0.00113017495
0.00113202037
0.00113307737
0.00113352125
0.00113396075
0.00113441519
0.00113490742
0.00113546102
0.00113609752
0.00113683387
0.00113768081
0.000766816118
0.000872664275
0.000930311844
0.000982469464
0.00102386541
0.0010541097
0.00107497974
0.00108912402
0.00109890131
0.00110598424
0.00111142588
0.00111583218
0.00111952759
0.00112268074
0.00112538433
0.00112769946
0.0011296767
0.00113136313
0.00113240274
0.00113252252
0.00113254359
0.00113258492
0.00113266617
0.00113281188
0.00113304883
0.00113340284
0.00113389568
0.00113454262
0.000767309362
0.000874503672
0.000933600859
0.000987060965
0.00102936252
0.00106004761
0.00108096549
0.00109489606
0.00110431773
0.00111098616
0.00111600528
0.00112000996
0.00112333929
0.00112616643
0.00112858045
0.0011306325
0.00113235911
0.0011335025
0.00113351732
0.00113320864
0.00113291239
0.00113264276
0.00113242133
0.001132276
0.00113223848
0.00113234072
0.00113261131
0.00113307215
0.000767677141
0.000875872549
0.000936081423
0.000990605437
0.00103371938
0.00106488121
0.00108596907
0.0010998494
0.00110908948
0.00111551226
0.00112026583
0.00112401165
0.00112710345
0.00112972043
0.0011319507
0.00113383856
0.00113526538
0.00113532558
0.00113477469
0.00113422091
0.00113367387
0.0011331499
0.00113267384
0.00113227843
0.00113200179
0.00113188365
0.00113196094
0.00113226347
0.000767961721
0.000876928258
0.000938009563
0.00099340784
0.0010372387
0.00106887637
0.00109020213
0.00110413703
0.00111331248
0.00111960426
0.00112419762
0.00112777799
0.00113071351
0.00113319063
0.00113529875
0.00113707817
0.00113735282
0.00113663257
0.00113588417
0.00113511774
0.00113434581
0.00113358837
0.00113287528
0.00113224599
0.00113174705
0.00113142782
0.00113133526
0.00113150837
0.000768188526
0.000877766581
0.000939547692
0.000995671331
0.00104013062
0.00107222426
0.00109382298
0.00110788072
0.00111707415
0.00112331932
0.0011278317
0.00113131747
0.0011341581
0.0011365477
0.00113857833
0.00113930436
0.00113852956
0.00113764628
0.0011367092
0.00113573198
0.00113473136
0.00113373284
0.0011327735
0.00113190207
0.00113117625
0.00113065787
0.00113040645
0.0011304628
0.000768373522
0.000878448037
0.000940801535
0.000997533801
0.00104254369
0.00107506494
0.00109695134
0.00111117558
0.00112044582
0.00112670834
0.00113120266
0.0011346523
0.00113745059
0.00113979898
0.00114091535
0.00114035478
0.00113941726
0.00113837064
0.00113723653
0.00113603243
0.0011347803
0.00113351283
0.0011322768
0.00113113336
0.00113015516
0.0011294206
0.00112900589
0.00112894269
0.000768527113
0.000879012235
0.000941841827
0.000999090654
0.00104458441
0.00107750219
0.00109967872
0.00111409646
0.00112348534
0.00112981426
0.00113434166
0.00113780539
0.00114060905
0.0011422166
0.00114201195
0.00114113745
0.00114007242
0.00113885388
0.0011375053
0.00113604758
0.00113450827
0.00113292857
0.00113136737
0.00112990191
0.00112862462
0.00112763637
0.00112703632
0.00112685554
0.000768656296
0.000879485887
0.000942717022
0.00100040893
0.00104632989
0.00107961339
0.00110207526
0.00111670225
0.0011262394
0.00113267261
0.00113727529
0.00114079713
0.00114304887
0.00114336809
0.00114271621
0.00114176132
0.00114056466
0.00113916189
0.00113757647
0.00113583134
0.00113395908
0.00113201
0.00113005724
0.00112819811
0.00112655101
0.00112524735
0.00112439966
0.00112410235
0.000768765903
0.000879887455
0.000943460967
0.00100153637
0.00104783632
0.00108145631
0.00110419454
0.0011190389
0.00112874504
0.0011353119
0.00114002496
0.00114317902
0.00114423695
0.00114401314
0.00114333513
0.00114230185
0.00114096956
0.00113936967
0.00113752281
0.00113545147
0.00113319145
0.00113080165
0.00112837088
0.00112602074
0.00112390307
0.00112219091
0.00112101879
0.00112057015
0.000768859341
0.000880229958
0.000944097695
0.00100250732
0.00104914479
0.00108307393
0.00110607706
0.00112114149
0.0011310306
0.00113775368
0.00114226237
0.00114436518
0.00114483285
0.00114463834
0.00114394251
0.00114283624
0.00114136765
0.0011395603
0.00113742806
0.0011349889
0.00113227831
0.00112936143
0.00112634282
0.00112337212
0.0011206436
0.00111838677
0.00111677263
0.00111610924
0.000768939063
0.000880522743
0.000944644497
0.00100334666
0.00105028537
0.00108449798
0.00110775281
0.00112303587
0.00113311647
0.00113976824
0.00114339867
0.00114491423
0.00114546189
0.00114531052
0.00114461119
0.00114344407
0.00114184561
0.00113982708
0.00113739015
0.00113454229
0.00113131255
0.00112776712
0.00112402371
0.00112026232
0.00111672947
0.00111371084
0.00111149649
0.0011105122
0.000769006869
0.000880772631
0.000945113956
0.00100407251
0.00105128
0.00108575155
0.00110924338
0.00112474004
0.00113484815
0.00114080738
0.00114389755
0.00114553416
0.00114617961
0.00114609283
0.0011454134
0.0011442081
0.00114249786
0.00114027631
0.00113752599
0.00113423523
0.00113041685
0.00112612844
0.00112149346
0.00111672076
0.00111211828
0.00110802946
0.00110496732
0.00110348793
0.000769064111
0.000880984698
0.000945515343
0.0010046981
0.00105214453
0.00108685103
0.00111056353
0.00112615236
0.00113575078
0.00114124951
0.00114448906
0.00114626644
0.00114703534
0.0011470443
0.0011464202
0.00114521407
0.00114342737
0.00114103008
0.00113797689
0.00113422528
0.00112975712
0.00112460487
0.00111888218
0.00111281727
0.00110678369
0.00110119566
0.00109688421
0.00109462169
0.000769111843
0.000881162828
0.000945855614
0.0010052332
0.00105289037
0.00108780776
0.00111164514
0.00112689144
0.00113612876
0.00114179133
0.0011451997
0.00114714434
0.00114807101
0.00114821819
0.00114769963
0.00114654902
0.00114474494
0.00114222744
0.00113891322
0.00113471375
0.00112955914
0.00112343038
0.00111640224
0.0011086975
0.00110068094
0.00109303218
0.00108684463
0.00108330966
0.000769150923
0.00088131011
0.000946140142
0.00100568509
0.00105352573
0.00108857127
0.00111220809
0.00112719933
0.00113660168
0.00114244538
0.00114604678
0.0011481915
0.00114931897
0.00114965898
0.00114931304
0.00114829739
0.00114656563
0.00114402259
0.00114053656
0.00113595499
0.00113012826
0.00112294649
0.00111439588
0.00110464024
0.00109394467
0.00108336475
0.00107430712
0.00106864394
0.0007691821
0.000881429147
0.000946373288
0.00100605947
0.0010540054
0.0010889601
0.00111244333
0.00112758938
0.00113717069
0.00114321516
0.00114703718
0.00114941984
0.0011507988
0.00115139794
0.00115130931
0.00115053393
0.00114900118
0.00114657824
0.00114307666
0.00113826155
0.00113186993
0.00112364642
0.00111340953
0.0011010218
0.00108687328
0.00107206691
0.0010584935
0.00104913333
0.000769206072
0.00088152228
0.000946558834
0.00100631036
0.00105423603
0.00108912493
0.00111274379
0.00112805475
0.00113782899
0.00114409441
0.00114816591
0.00115082705
0.00115251338
0.0011534473
0.00115371657
0.0011533127
0.00115214632
0.00115005045
0.00114677796
0.00114199852
0.00113530206
0.00112622102
0.00111423136
0.00109877065
0.00108016619
0.00105926505
0.00103833329
0.00102220076
0.00076921916
0.000881577892
0.000946652972
0.00100641378
0.00105433853
0.00108933741
0.00111309823
0.00112858235
0.00113856172
0.00114506645
0.00114941472
0.00115239411
0.00115444467
0.00115579342
0.00115653178
0.00115665184
0.00115605771
0.00115456152
0.00115186878
0.00114755583
0.00114104434
0.00113158651
0.00111791259
0.0010993011
0.00107515338
0.00104563973
0.00101280883
0.000984632503
0.00076921982
0.000881590557
0.000946673992
0.00100646804
0.00105447318
0.001089585
0.001113491
0.00112915321
0.00113934606
0.00114610402
0.00115075133
0.00115408337
0.00115654994
0.00115839004
0.00115970923
0.00116051489
0.00116072491
0.00116015767
0.00115850498
0.00115528554
0.00114977519
0.00114069722
0.00112631029
0.00110491989
0.0010742617
0.0010327224
0.00098166424
0.000936583953
0.000769217351
0.000881590764
0.000946697743
0.00100654248
0.0010546285
0.00108985248
0.00111390271
0.00112974309
0.00114015193
0.0011471699
0.00115212976
0.00115583819
0.00115875989
0.00116115357
0.0011631506
0.00116479156
0.00116603559
0.00116674937
0.00116667444
0.00116536432
0.00116207488
0.00115489196
0.00114205771
0.00112026055
0.00108444432
0.00102861221
0.000952066979
0.000890102488
0.000769218079
0.000881600001
0.000946733052
0.00100662791
0.00105479152
0.00109012256
0.00111431103
0.00113032357
0.0011409434
0.00114821858
0.0011534922
0.0011575848
0.00116098007
0.00116396285
0.00116670078
0.00116928491
0.00117174462
0.00117404405
0.00117605904
0.00117752454
0.00117772133
0.00117500918
0.00116774459
0.00115194491
0.00112026316
0.00106115889
0.000967583156
0.000883876928
0.000739802475
0.000821720399
0.000884285652
0.000955194115
0.00102015876
0.00107303744
0.00111337341
0.00114347669
0.00116589629
0.00118273435
0.00119560216
0.00120564384
0.00121363749
0.00122011592
0.00122545326
0.00122991905
0.00123371196
0.00123698083
0.00123983724
0.00124236353
0.00124461878
0.00124664384
0.00124846601
0.00125010341
0.0012515688
0.00125286061
0.00125396903
0.00125497086
0.000752948051
0.000758100511
0.000763153024
0.000796312809
0.000843037069
0.00089402722
0.000942820239
0.000986179792
0.0010231104
0.00105379122
0.00107898889
0.00109965712
0.00111669045
0.00113084042
0.00114271397
0.00115279245
0.00116145214
0.00116898242
0.00117560084
0.00118146602
0.00118668946
0.00119134655
0.00119548719
0.00119914556
0.00120234879
0.0012051123
0.00120744671
0.00120937707
0.000770705316
0.000770885142
0.000754230598
0.000761609644
0.000782815372
0.000811803271
0.000843642121
0.000875053546
0.000904265128
0.000930445848
0.000953363448
0.00097315591
0.000990139542
0.00100468947
0.00101718311
0.00102797271
0.00103736961
0.00104563506
0.00105297662
0.00105954909
0.00106545992
0.00107077764
0.00107554222
0.00107977596
0.00108349353
0.00108671035
0.00108944837
0.00109167087
0.000779769891
0.000790744204
0.000774251791
0.000776095425
0.000787811358
0.000805249762
0.00082530807
0.00084594197
0.000866002491
0.000884836731
0.000902091294
0.00091762872
0.000931453603
0.000943657763
0.000954389293
0.000963830573
0.000972176826
0.000979615648
0.000986310369
0.000992389395
0.00099794236
0.00100302251
0.00100765363
0.00101183968
0.00101557496
0.00101885346
0.00102167605
0.00102404512
0.000783419059
0.000802127862
0.000790103557
0.000794031907
0.00080525499
0.00081966903
0.000834836043
0.000849601987
0.000863584415
0.000876663989
0.000888783957
0.000899910989
0.000910028707
0.000919143338
0.000927295032
0.000934562302
0.00094105463
0.000946896649
0.000952209881
0.000957097148
0.00096163276
0.000965859455
0.000969791259
0.000973420543
0.00097672714
0.000979687609
0.000982283287
0.000984505885
0.000785371703
0.000808597704
0.000800134925
0.000806893501
0.000819986768
0.00083497128
0.00084932876
0.000862134397
0.00087337842
0.000883322722
0.00089222409
0.000900262104
0.000907536404
0.000914094998
0.000919971542
0.000925212677
0.000929888314
0.000934087373
0.000937905235
0.000941429284
0.00094472726
0.000947840941
0.000950785609
0.000953554258
0.000956124813
0.000958468494
0.000960557773
0.000962372491
0.000786562495
0.000812606491
0.000806645132
0.000815656623
0.000830626551
0.000846911418
0.000861835787
0.000874466259
0.000884903018
0.000893576478
0.000900924421
0.000907285184
0.000912875833
0.000917816706
0.000922174445
0.000925999833
0.000929350131
0.000932295752
0.000934915735
0.000937287718
0.000939477518
0.000941531647
0.000943474399
0.00094530935
0.000947024223
0.000948597573
0.000950005762
0.000951228878
0.000787345044
0.000815276784
0.000811110615
0.000821858615
0.000838384281
0.000855910855
0.000871653372
0.000884649744
0.00089504066
0.000903333422
0.000910058241
0.000915645651
0.00092039156
0.000924473725
0.000927992078
0.000931008597
0.000933575299
0.000935748403
0.000937591106
0.000939169118
0.000940543319
0.000941762941
0.000942861501
0.000943856141
0.000944750097
0.00094553721
0.000946207254
0.00094675082
0.00078789868
0.000817167194
0.000814325063
0.000826427936
0.000844230806
0.000862843309
0.000879391248
0.000892883668
0.000903484494
0.000911750067
0.000918269047
0.000923530864
0.000927884019
0.000931547281
0.000934646619
0.000937254139
0.000939418014
0.000941180998
0.000942588741
0.000943690668
0.000944536522
0.000945171644
0.000945633144
0.000945948151
0.000946134394
0.000945974989
0.000945694671
0.000945471584
0.000788311101
0.000818570068
0.000816731877
0.000829906911
0.000848766644
0.000868323547
0.000885623046
0.000899640206
0.00091054874
0.000918938694
0.000925441337
0.000930589447
0.000934770774
0.000938235828
0.000941132163
0.00094354176
0.00094551117
0.000947072205
0.000948254026
0.000949088238
0.000949609325
0.000949852722
0.000949503046
0.000948738118
0.000947929779
0.000946886785
0.00094586627
0.000945077073
0.000788630284
0.000819651225
0.000818595265
0.000832631915
0.000852373116
0.000872752101
0.00089074311
0.000905284106
0.000916547364
0.000925143573
0.000931734438
0.000936885424
0.000941014897
0.000944399165
0.000947204596
0.000949523391
0.000951403112
0.00095286831
0.00095393478
0.000954617685
0.000954143232
0.000953279045
0.000951906106
0.000950208649
0.000948574604
0.000947063259
0.000945740409
0.000944671899
0.000788884943
0.000820510249
0.000820078935
0.000834819051
0.00085530176
0.000876397845
0.000895020526
0.00091007084
0.000921712241
0.000930565854
0.000937313774
0.00094254543
0.00094670284
0.000950083214
0.000952869163
0.000955162839
0.000957014603
0.000958444695
0.000958763301
0.000958136138
0.000956459426
0.000954505129
0.000952506218
0.000950504757
0.000948559005
0.000946740884
0.000945130376
0.000943801525
0.000789092956
0.000821209322
0.000821287482
0.000836610855
0.000857723338
0.0008794474
0.000898645124
0.000914182979
0.000926211588
0.00093535544
0.000942309386
0.000947679902
0.000951926995
0.000955364604
0.000958189009
0.000960511494
0.000962385865
0.000962381866
0.000961224912
0.000959226662
0.00095709218
0.000954846468
0.000952525629
0.000950183207
0.000947891679
0.000945739643
0.000943825434
0.000942225085
0.000789265884
0.000821788749
0.000822289833
0.000838103645
0.000859756272
0.000882033119
0.000901754006
0.00091775425
0.00093017002
0.000939624701
0.000946820507
0.000952375813
0.000956764252
0.000960313093
0.000963230089
0.000965343828
0.000965576311
0.000963950221
0.00096193854
0.00095970525
0.000957279588
0.00095469397
0.000951995271
0.000949251548
0.000946553717
0.000944012347
0.000941750148
0.000939853263
0.000789411465
0.000822275515
0.000823132647
0.000839363878
0.000861484043
0.000884250213
0.000904447554
0.000920884024
0.000933681243
0.000943458947
0.000950923178
0.000956700637
0.000961275375
0.000964985551
0.000967476285
0.000967938605
0.000966466108
0.000964592134
0.00096238373
0.000959881828
0.000957118806
0.000954134074
0.000950986199
0.000947760395
0.000944570617
0.000941556038
0.000938858899
0.0009366229
0.000789535015
0.000822688166
0.000823848237
0.000840438229
0.000862966278
0.000886167836
0.000906799792
0.000923646517
0.000936815906
0.00094692289
0.000954675281
0.000960705749
0.000965506758
0.000968685922
0.000969599076
0.00096864593
0.000967112697
0.000965102341
0.000962675884
0.000959870942
0.00095672019
0.000953268149
0.000949584757
0.000945774309
0.000941978622
0.000938373614
0.000935128912
0.000932467027
0.00078964028
0.000823039743
0.000824459421
0.000841359966
0.000864245993
0.000887836491
0.000908865362
0.000926096937
0.000939626747
0.000950064765
0.000958119526
0.000964428479
0.000968678057
0.000970426177
0.000970284756
0.000969342732
0.000967749984
0.00096559775
0.0009629368
0.000959796826
0.000956206252
0.000952210858
0.000947889732
0.000943366816
0.000938816408
0.000934461023
0.000930509166
0.000927290752
0.000789729955
0.000823339603
0.000824982584
0.000842153087
0.000865354423
0.000889293087
0.000910684366
0.000928275791
0.000942152202
0.000952919035
0.000961285383
0.000967079147
0.00097009645
0.000971106055
0.000971047002
0.000970129992
0.000968489253
0.00096620016
0.000963297888
0.000959797933
0.000955717643
0.000951097359
0.000946020046
0.00094062727
0.00093512931
0.000929792876
0.000924923161
0.000920956443
0.000789806021
0.000823594599
0.000825429684
0.000842835087
0.000866314339
0.000890564508
0.000912285869
0.000930212073
0.000944418993
0.000955508381
0.000963428221
0.000968216365
0.000970767914
0.000971922849
0.000971970993
0.000971106104
0.000969443724
0.000967038753
0.00096390436
0.000960033546
0.000955422573
0.00095009553
0.000944129112
0.000937675691
0.000930981889
0.000924354843
0.000918266228
0.000913269939
0.000789869985
0.000823809881
0.000825809613
0.000843418872
0.000867142403
0.000891670203
0.000913690514
0.00093192564
0.000946444148
0.000957168546
0.000964313504
0.000968863534
0.00097160884
0.00097294136
0.000973135472
0.000972366674
0.000970729019
0.000968252011
0.000964919395
0.000960691159
0.000955528526
0.000949422614
0.000942426084
0.000934686779
0.000926480782
0.000918154851
0.000910405514
0.00090396183
0.000789923029
0.000823989446
0.000826129164
0.000843914128
0.000867850891
0.000892624161
0.000914912542
0.000933429098
0.000947662528
0.000957826514
0.00096491348
0.000969687348
0.000972661609
0.000974216342
0.000974611057
0.000974002642
0.000972461602
0.000969987583
0.000966526848
0.000961993561
0.000956295593
0.000949366618
0.000941205749
0.000931926388
0.00092176706
0.000911232694
0.000901187498
0.000892659717
0.00078996614
0.000824136555
0.000826393734
0.000844328358
0.000868449031
0.000893436448
0.000915923652
0.000934262039
0.000948118212
0.000958355893
0.000965677316
0.000970708616
0.000973956
0.000975789854
0.000976456744
0.0009760961
0.000974754518
0.000972398842
0.000968930579
0.000964204005
0.000958050723
0.000950312842
0.000940889887
0.000929806469
0.000917177561
0.000903714234
0.00089044893
0.000878828818
0.000790000189
0.00082425403
0.00082660786
0.000844667677
0.000868944044
0.000894037485
0.000916439783
0.000934544215
0.000948558774
0.000959023485
0.000966607697
0.000971934723
0.000975506554
0.000977687332
0.000978714377
0.000978713205
0.000977709175
0.000975636663
0.0009723482
0.000967625998
0.000961200109
0.000952776993
0.000942088831
0.000928880729
0.000913270608
0.000895730891
0.000877819684
0.000861555554
0.000790026
0.000824344487
0.000826775645
0.000844937442
0.000869250243
0.000894312319
0.000916620036
0.000934886916
0.000949106295
0.000959818907
0.00096769479
0.000973357649
0.000977309246
0.000979912398
0.000981401096
0.00098189377
0.000981401763
0.00097983334
0.000976994923
0.000972591513
0.000966230225
0.000957433129
0.000945631723
0.000930185727
0.000910582119
0.000887672011
0.000862789465
0.000838538767
0.000790037923
0.000824399341
0.000826868565
0.000845054933
0.000869359244
0.000894429642
0.000916866706
0.000935305773
0.000949742799
0.000960721474
0.000968915316
0.000974952059
0.000979338027
0.000982441056
0.000984500145
0.000985637375
0.000985863448
0.000985076086
0.00098305144
0.000979428208
0.000973685571
0.000965119809
0.000952573034
0.000934508297
0.000910581595
0.000880506663
0.000844679958
0.000806295406
0.000790034908
0.000824406858
0.000826884896
0.000845066578
0.000869427502
0.000894592174
0.000917163243
0.000935780063
0.000950442827
0.00096170027
0.000970232169
0.000976674056
0.000981542048
0.000985216344
0.000987951313
0.000989887283
0.00099105465
0.00099136831
0.000990610153
0.000988394998
0.000984113197
0.00097668139
0.00096391833
0.000944147256
0.000915442387
0.000875611149
0.000823190325
0.00076567792
0.000790029315
0.0008243966
0.000826886865
0.000845102283
0.00086952481
0.00089478469
0.000917489736
0.000936284301
0.000951174162
0.000962714919
0.000971595059
0.000978461353
0.000983844706
0.000988145085
0.000991643367
0.00099451505
0.000996836153
0.00099857855
0.000999590703
0.000999554892
0.00099790376
0.000992940562
0.000981942001
0.000962837578
0.000930885436
0.000879774959
0.000805151217
0.000733233143
0.000790027977
0.000824398215
0.000826904826
0.000845155573
0.000869638617
0.000894990158
0.000917823664
0.000936789214
0.000951899165
0.000963717295
0.00097294257
0.000980235541
0.000986145754
0.000991098974
0.000995412237
0.000999311967
0.001002946
0.00100638754
0.00100962796
0.00101255071
0.00101471161
0.00101396517
0.00100861476
0.000995730545
0.000968779603
0.000916802782
0.000830390765
0.000751889206
0.000754519889
0.000837736309
0.000885275658
0.000937743016
0.000987155372
0.00102955136
0.00106359928
0.00109017905
0.00111087897
0.00112714112
0.00114009954
0.00115059028
0.00115920803
0.00116637899
0.00117241726
0.00117756019
0.00118199029
0.00118584909
0.00118924591
0.00119226363
0.00119496328
0.00119738825
0.00119956834
0.0012015239
0.00120326975
0.00120481853
0.0012061833
0.00120737933
0.000771500743
0.000773525209
0.000758520266
0.000767398585
0.000789772543
0.000819489185
0.000851583264
0.000882832976
0.000911585466
0.000937140831
0.000959379285
0.000978522276
0.000994938248
0.00100902523
0.00102115971
0.00103167674
0.00104086236
0.00104895215
0.00105613322
0.00106254822
0.00106830111
0.00107346413
0.00107808571
0.00108219856
0.00108582729
0.00108899492
0.00109172777
0.00109405839
0.000791452741
0.000787120124
0.000747909529
0.00073079084
0.000728385476
0.000736306131
0.00075056573
0.000768032075
0.000786658892
0.000805152262
0.000822712154
0.000838906237
0.000853560292
0.000866662862
0.000878301247
0.000888619418
0.000897786573
0.000905972931
0.000913332338
0.000919991515
0.000926045503
0.000931558451
0.000936568415
0.000941094598
0.000945145485
0.000948726591
0.000951846895
0.000954523287
0.000801362937
0.000808448841
0.000768052159
0.000744584292
0.000732829403
0.00072985353
0.000732972728
0.000739935227
0.000749186803
0.000759664981
0.000770602902
0.000781457071
0.000791864567
0.000801602453
0.000810558442
0.000818708692
0.000826094888
0.000832799312
0.000838920705
0.000844554068
0.000849776602
0.000854640569
0.00085917248
0.000863377083
0.000867244234
0.000870756824
0.000873898344
0.000876658984
0.000805280296
0.000820721939
0.000784167573
0.000761970389
0.000749421358
0.000743725288
0.000742633337
0.000744470908
0.000748207111
0.000753196077
0.000758964377
0.000765135655
0.00077140822
0.000777546599
0.000783383094
0.00078882117
0.000793831522
0.000798438598
0.000802700783
0.000806689153
0.000810469188
0.00081408828
0.000817569941
0.00082091402
0.000824101299
0.000827100556
0.000829876371
0.000832396281
0.000807380811
0.000827651017
0.00079425191
0.000774207418
0.000763076037
0.000757936326
0.000756430937
0.000756947442
0.000758630325
0.000761061802
0.000764002974
0.000767277822
0.000770728584
0.000774205097
0.000777575835
0.000780745917
0.000783668845
0.000786346509
0.000788818579
0.000791145684
0.000793391519
0.00079560811
0.000797826643
0.000800054307
0.000802276252
0.000804461043
0.000806567865
0.000808553927
0.000808664441
0.00083192485
0.000800747419
0.000782421304
0.000772691764
0.000768642052
0.000767813736
0.000768526274
0.000769918358
0.00077162045
0.000773484164
0.000775444634
0.000777451331
0.000779440076
0.000781336435
0.00078307431
0.000784614159
0.000785952323
0.000787119512
0.000788170646
0.000789170336
0.000790178456
0.000791239179
0.00079237506
0.000793586194
0.00079485344
0.000796144212
0.00079741924
0.000809509485
0.000834770454
0.000805190702
0.000788189106
0.000779590859
0.000776510256
0.000776450328
0.000777688324
0.00077934304
0.000781046153
0.000782672814
0.000784202252
0.000785639226
0.000786973871
0.000788174943
0.000789202721
0.000790026794
0.00079063946
0.000791060752
0.000791334933
0.000791520928
0.000791680323
0.000791866384
0.000792116408
0.00079244836
0.000792861544
0.000793340282
0.000793859161
0.000810108977
0.000836785964
0.000808383767
0.000792418724
0.000784741305
0.000782477649
0.000783107871
0.000784883843
0.000786913983
0.000788831173
0.000790521388
0.000791985223
0.000793257314
0.000794360735
0.000795293515
0.000796035751
0.000796564346
0.00079686694
0.000796950558
0.000796843378
0.00079659035
0.000796244998
0.000795860201
0.0007954804
0.000795136746
0.000794845584
0.000794609794
0.000794422109
0.000810556122
0.000838281743
0.000810771273
0.000795628675
0.000788712238
0.000787146465
0.000788389838
0.000790671805
0.000793091169
0.000795281948
0.0007971383
0.000798675292
0.000799947504
0.000801000889
0.000801855337
0.000802507429
0.000802941803
0.000803143856
0.000803109709
0.000802851286
0.000802396188
0.000801783477
0.000801057307
0.000800260471
0.000799429397
0.0007985914
0.000797764345
0.000796958185
0.000810902131
0.000839434115
0.000812617718
0.000798137057
0.000791855193
0.000790890575
0.000792681206
0.000795435072
0.000798239431
0.000800726387
0.000802794732
0.000804469293
0.000805818696
0.00080690573
0.000807767429
0.000808414701
0.000808840738
0.000809031897
0.000808977552
0.000808676795
0.000808141177
0.000807393814
0.000806465994
0.00080539276
0.000804208874
0.000802946039
0.000801631776
0.000800289713
0.000811177935
0.000840349141
0.00081408657
0.000800146802
0.000794398639
0.000793954566
0.000796234523
0.000799426731
0.000802605813
0.000805399079
0.000807706356
0.000809558069
0.000811032251
0.000812203857
0.000813123162
0.000813813093
0.000814275226
0.000814498776
0.000814469661
0.000814177755
0.00081362132
0.000812808537
0.000811303094
0.00080949866
0.000807624229
0.000805715682
0.000803814674
0.000801966471
0.000811402898
0.000841093108
0.000815281999
0.000801790934
0.000796495894
0.000796505076
0.000799223336
0.000802821387
0.00080636124
0.000809463669
0.000812026861
0.000814083635
0.000815717896
0.000817013177
0.000818029798
0.000818800433
0.000819334083
0.000819623305
0.000819652218
0.00081902156
0.000817491147
0.000815786595
0.000813462531
0.000810911473
0.000808364158
0.000805865202
0.000803473089
0.000801255425
0.000811589607
0.000841709048
0.0008162725
0.000803158819
0.000798252188
0.000798658457
0.000801770375
0.000805743584
0.000809628261
0.000813037918
0.000815867444
0.000818149894
0.000819972572
0.000821425021
0.000822575219
0.000823463673
0.00082410564
0.000824286185
0.000823115122
0.000821339278
0.000818735813
0.000816041865
0.000813270642
0.000810446242
0.000807609162
0.000804817893
0.000802146547
0.000799679146
0.000811746528
0.000842225814
0.000817104349
0.000804311792
0.000799741054
0.000800497337
0.000803963963
0.000808283908
0.000812496704
0.00081620859
0.000819310382
0.000821834112
0.000823868911
0.000825508678
0.00082682744
0.000827872123
0.000827755624
0.000826639337
0.000824174403
0.000821529907
0.000818726704
0.000815779684
0.000812709019
0.000809549344
0.000806355502
0.000803203983
0.00080018986
0.000797419611
0.000811879499
0.000842663263
0.000817809544
0.000805292755
0.000801014654
0.000802081121
0.000805868353
0.000810508896
0.000815033005
0.000819040142
0.000822416946
0.000825193866
0.000827461108
0.000829316062
0.00083083785
0.000830700739
0.00082925502
0.000826967063
0.000824400464
0.000821588729
0.000818551042
0.00081530415
0.000811874293