/*--------------------------------*- C++ -*----------------------------------*\
| =========                 |                                                 |
| \\      /  F ield         | foam-extend: Open Source CFD                    |
|  \\    /   O peration     | Version:     4.1                                |
|   \\  /    A nd           | Web:         http://www.foam-extend.org         |
|    \\/     M anipulation  |                                                 |
\*---------------------------------------------------------------------------*/
FoamFile
{
    version     2.0;
    format      ascii;
    class       volVectorField;
    location    "0.1";
    object      U;
}
// * * * * * * * * * * * * * * * * * * * * * * * * * * * * * * * * * * * * * //

dimensions      [0 1 -1 0 0 0 0];

internalField   nonuniform List<vector> 
35840
(
(3.94086089 0.268528075 0.261844247)
(3.2079563 0.371830151 0.357379685)
(2.43830396 0.266505027 0.249861284)
(1.72036036 0.156943639 0.141980419)
(1.29368052 0.0888177301 0.0772272988)
(1.05218031 0.0517300688 0.0439487689)
(0.893387806 0.0312158999 0.0271174074)
(0.785120702 0.0190072465 0.0181155271)
(0.711533072 0.0115316241 0.0131872569)
(0.659841049 0.00694344606 0.010459846)
(0.621880042 0.00406888386 0.0088261186)
(0.593022771 0.00221415455 0.00770118196)
(0.570505749 0.000994019829 0.00682114195)
(0.552566756 0.00018412905 0.00607753419)
(0.538037675 -0.000354062436 0.00543136676)
(0.526104775 -0.000707914545 0.00487282662)
(0.51616714 -0.000932995556 0.00440007726)
(0.507759797 -0.00106538732 0.00400852869)
(0.500521567 -0.00112848198 0.00368769084)
(0.49417141 -0.00113680039 0.0034219864)
(0.488495154 -0.00109955253 0.0031930063)
(0.483336766 -0.00102357168 0.00298254047)
(0.478588283 -0.000914997976 0.00277526298)
(0.474179547 -0.000779931956 0.00256037218)
(0.470067563 -0.000624593857 0.00233222274)
(0.46622625 -0.00045521139 0.00209011565)
(0.462637366 -0.000277914419 0.0018375242)
(0.459283836 -9.843624e-05 0.00158079734)
(4.52125007 0.409951985 0.331399964)
(4.20224747 0.638132584 0.509000258)
(3.63676901 0.543489405 0.40727619)
(2.94290482 0.391284854 0.261509868)
(2.41565635 0.26750508 0.152227856)
(2.06110778 0.181557091 0.0859898285)
(1.8085293 0.124052436 0.0502934794)
(1.6242098 0.0850699656 0.0318068571)
(1.49011808 0.0584215524 0.0221480515)
(1.39074405 0.0402153964 0.0169789674)
(1.31489987 0.0276945863 0.0140134781)
(1.25558901 0.0189745884 0.0120721935)
(1.20830555 0.0128327215 0.0106180008)
(1.16996956 0.00847036703 0.00943218091)
(1.13841693 0.00535085066 0.00843226154)
(1.11208694 0.00310494651 0.00759163276)
(1.0898183 0.00147408746 0.00690246286)
(1.07073038 0.00027632075 0.0063568508)
(1.05414752 -0.000613161044 0.0059384839)
(1.03955831 -0.00127461586 0.00562115293)
(1.02658383 -0.00175516761 0.00537139758)
(1.01495537 -0.00207917588 0.00515359862)
(1.00448362 -0.00225707419 0.00493515268)
(0.995036685 -0.00229333973 0.00469021633)
(0.98651928 -0.00219191471 0.00440208432)
(0.978854638 -0.0019595009 0.00406393327)
(0.971970714 -0.00160721212 0.00367794248)
(0.965790399 -0.00115091833 0.00325355355)
(4.44213404 0.221359626 0.337952103)
(4.0827849 0.436509829 0.518819265)
(3.65714176 0.463103682 0.418091425)
(3.1371361 0.408839647 0.275896186)
(2.71980225 0.331881289 0.166472554)
(2.421827 0.257600397 0.0961306203)
(2.1980664 0.19565818 0.0565166561)
(2.0262621 0.146975067 0.0359508626)
(1.89472932 0.109602866 0.0254153173)
(1.79237525 0.0813058576 0.019854869)
(1.71071237 0.0600584817 0.0166650623)
(1.64435107 0.0441712914 0.0145318151)
(1.58973365 0.0323209547 0.0128692005)
(1.54429001 0.0234945621 0.0114601422)
(1.50609168 0.0169160407 0.0102392946)
(1.47365935 0.0119862894 0.00919467465)
(1.44583363 0.00824138398 0.0083277539)
(1.4216988 0.00532791456 0.00763568154)
(1.40053763 0.00298933565 0.00710410138)
(1.38180019 0.00105544605 0.00670630966)
(1.3650775 -0.000570043273 0.00640621199)
(1.35007142 -0.00192501067 0.00616287872)
(1.33657531 -0.00300771371 0.0059359671)
(1.32444346 -0.00379548198 0.00569079273)
(1.31356803 -0.0042612878 0.00540175889)
(1.30385799 -0.00438586581 0.00505429503)
(1.29522322 -0.00416511901 0.00464493598)
(1.28756409 -0.00361338862 0.00417972576)
(4.41370767 0.123367837 0.337929436)
(3.97527187 0.285988483 0.516843843)
(3.52614473 0.346924891 0.410947658)
(3.04827386 0.34173333 0.267064169)
(2.69651775 0.30469567 0.158704246)
(2.46050091 0.256393539 0.0893375777)
(2.28806892 0.208494824 0.0503835366)
(2.15589975 0.16614562 0.030684422)
(2.05337439 0.130605517 0.021198353)
(1.97149057 0.1015741 0.0166680844)
(1.90384038 0.0782668846 0.014389005)
(1.84678893 0.0597966596 0.0130074572)
(1.79818762 0.0453177884 0.0119253108)
(1.75653359 0.0340711816 0.0109399138)
(1.72066062 0.0253875581 0.0100142374)
(1.68960916 0.0186808605 0.00916457315)
(1.66256093 0.0134454263 0.00841593026)
(1.63881617 0.00926059424 0.00778481391)
(1.61779019 0.0057991765 0.00727355822)
(1.59901166 0.00283328479 0.00687048731)
(1.58211636 0.000232224033 0.00655284928)
(1.56683511 -0.00205020009 0.00629093673)
(1.55297724 -0.00399639504 0.00605257242)
(1.54041045 -0.00555027464 0.00580736649)
(1.52904003 -0.00664306585 0.00553049359)
(1.51878954 -0.0072148013 0.00520531689)
(1.50958473 -0.00722945687 0.0048245349)
(1.50134219 -0.00668323546 0.00438972104)
(4.40562845 0.0838855245 0.338530681)
(3.9270924 0.205866045 0.518668447)
(3.43458099 0.264618671 0.409529557)
(2.94273638 0.274603502 0.261042763)
(2.60542511 0.257617801 0.150326817)
(2.3968577 0.22791732 0.0806224865)
(2.25539244 0.19416316 0.0421738745)
(2.15313323 0.161398577 0.0232895814)
(2.07712493 0.131870484 0.0147359953)
(2.01757782 0.106230042 0.0111384242)
(1.96817051 0.0844577991 0.00973622851)
(1.92573095 0.0662847716 0.00915374285)
(1.88871683 0.051347343 0.00877795003)
(1.85624552 0.039241967 0.00839805779)
(1.82770624 0.0295443651 0.00797690221)
(1.8025951 0.0218214217 0.00753501525)
(1.7804444 0.015648334 0.00710356539)
(1.76081032 0.0106332295 0.00670708691)
(1.74328624 0.00644455793 0.00635843001)
(1.72751846 0.0028339954 0.00605907495)
(1.71321585 -0.000351832302 0.00580147405)
(1.70015377 -0.0031736338 0.00557216015)
(1.68816583 -0.00561429944 0.00535430656)
(1.67713525 -0.00760411564 0.00513018331)
(1.66698051 -0.00904968837 0.00488388325)
(1.65764101 -0.00986112127 0.00460353078)
(1.6490635 -0.0099735617 0.0042827377)
(1.64119156 -0.00936115466 0.00392101885)
(4.40178186 0.0613560648 0.339165267)
(3.90241537 0.153216771 0.520515181)
(3.38073845 0.204389856 0.410103384)
(2.86920555 0.221036988 0.258757621)
(2.52748249 0.215685167 0.145994308)
(2.32471818 0.198021884 0.0755485341)
(2.19477908 0.174596232 0.0370413441)
(2.10703151 0.149760374 0.0183486218)
(2.04641463 0.125909301 0.010097665)
(2.00177313 0.104086983 0.00684953545)
(1.9660891 0.0846606179 0.00581077694)
(1.93589659 0.067705284 0.00559833247)
(1.90959854 0.0531621851 0.00559420568)
(1.88640724 0.0408936538 0.00557700011)
(1.86588694 0.0306989904 0.00549716819)
(1.84773527 0.0223226171 0.00536406195)
(1.83167758 0.0154698877 0.00519988601)
(1.8174355 0.00983392117 0.00502337687)
(1.80473217 0.00512875313 0.00484570107)
(1.79330671 0.00112072947 0.0046711488)
(1.78292857 -0.002349706 0.00449940425)
(1.77340534 -0.00535893371 0.00432757493)
(1.76458305 -0.00790628039 0.00415092527)
(1.75634476 -0.00993321954 0.00396369468)
(1.74860342 -0.0113493648 0.0037601492)
(1.74129365 -0.0120600424 0.00353556311)
(1.73436295 -0.01199067 0.00328713695)
(1.72776427 -0.0111046444 0.00301458841)
(4.39956824 0.0466854851 0.339654348)
(3.88830031 0.117713 0.521955974)
(3.34830859 0.161215104 0.41127488)
(2.82101285 0.180092261 0.258576391)
(2.47117081 0.181342511 0.144577815)
(2.2665871 0.171461226 0.073517081)
(2.13908354 0.155395806 0.0348010677)
(2.0566822 0.136690733 0.016049839)
(2.00312242 0.117542929 0.00779751952)
(1.96631159 0.0991191402 0.00457317833)
(1.9386319 0.0819890425 0.00357035336)
(1.91624303 0.0664256172 0.00341010872)
(1.89731839 0.0525555629 0.00348104323)
(1.88095342 0.0404187581 0.00356098247)
(1.86668271 0.0299836528 0.00359367257)
(1.85423336 0.021149999 0.00357950938)
(1.84339316 0.0137571756 0.00353160036)
(1.83395789 0.00760433366 0.00346078975)
(1.82572086 0.00247979648 0.0033726552)
(1.81847695 -0.00180787868 0.00326897163)
(1.8120334 -0.005403611 0.00315051958)
(1.80621191 -0.00838968885 0.00301832872)
(1.8008555 -0.0107841806 0.00287367987)
(1.79582881 -0.0125519588 0.00271798683)
(1.79101701 -0.0136244785 0.00255247103)
(1.78632353 -0.0139238584 0.0023779674)
(1.78166726 -0.01338645 0.00219500713)
(1.77698003 -0.0119818842 0.00200408881)
(4.39821716 0.0366451878 0.340044176)
(3.87961132 0.092968641 0.523112638)
(3.32761026 0.129531259 0.41250229)
(2.78858167 0.148122076 0.25914427)
(2.43107794 0.152856527 0.144422578)
(2.22278376 0.148031895 0.0729652306)
(2.09445994 0.137262369 0.0341125871)
(2.01337486 0.123302937 0.0153130459)
(1.9625835 0.108015139 0.00702387023)
(1.92942199 0.0925294943 0.00375487451)
(1.90587901 0.0775009239 0.00269661325)
(1.88784462 0.0633169061 0.00247809558)
(1.87329878 0.0502230295 0.00249900791)
(1.86120533 0.0383804445 0.00254341537)
(1.85102386 0.0278814918 0.00255566305)
(1.84245481 0.0187496519 0.00253351567)
(1.83529574 0.0109419046 0.00248613746)
(1.82937473 0.00436134545 0.00242027204)
(1.82452569 -0.00112047772 0.00233802383)
(1.82058328 -0.00563676629 0.0022391859)
(1.81737936 -0.00929950642 0.00212413417)
(1.81474575 -0.0121814219 0.00199486189)
(1.81251609 -0.0143091608 0.00185505157)
(1.81052782 -0.0156675516 0.00170944979)
(1.80862471 -0.0162131907 0.00156281566)
(1.80666003 -0.0158938022 0.00141901771)
(1.80449989 -0.0146689721 0.00128046631)
(1.8020272 -0.0125281071 0.00114801974)
(4.39732321 0.0293712369 0.340351119)
(3.87388807 0.074789635 0.524009227)
(3.3137236 0.105387452 0.413543341)
(2.76607119 0.122568137 0.259844467)
(2.40214158 0.128921332 0.144702545)
(2.18993507 0.127278307 0.0730104528)
(2.05970292 0.120220115 0.0340900893)
(1.97827571 0.109834577 0.0152788219)
(1.92827956 0.097630766 0.00697596069)
(1.89667213 0.0846176185 0.00367684367)
(1.87516809 0.0714509639 0.00257026898)
(1.85946399 0.0585688618 0.00229064385)
(1.84739659 0.046286367 0.00224648217)
(1.83782565 0.0348439849 0.00222862187)
(1.83014374 0.0244211326 0.00218444111)
(1.82401966 0.0151341053 0.00211217863)
(1.81924995 0.00703449257 0.00202027603)
(1.81568398 0.000115884101 0.00191439503)
(1.81318978 -0.00567047387 0.00179581782)
(1.81163662 -0.0103936425 0.00166413963)
(1.81088439 -0.0141206273 0.00151992296)
(1.8107781 -0.0168990882 0.00136594167)
(1.81114542 -0.0187481947 0.00120726958)
(1.81179772 -0.0196591617 0.00105037676)
(1.81253451 -0.0196047871 0.000901785271)
(1.81315073 -0.0185550677 0.000766856395)
(1.81344641 -0.0164948228 0.000648799009)
(1.81323709 -0.0134397627 0.000548338462)
(4.39669843 0.0238578663 0.340588755)
(3.8699279 0.0608962695 0.524696071)
(3.30403341 0.0864764126 0.41437827)
(2.74999371 0.101806752 0.260496375)
(2.38084836 0.108632536 0.145101934)
(2.16502543 0.108846236 0.0732637088)
(2.032581 0.104276781 0.0343038166)
(1.95011111 0.0964825794 0.015492472)
(1.89997111 0.0866527845 0.00718899211)
(1.86885964 0.0756425674 0.00387709987)
(1.84829096 0.0640581909 0.0027432248)
(1.83381314 0.0523422671 0.00242420546)
(1.8231511 0.0408407665 0.00233379801)
(1.81508224 0.0298399122 0.00226748389)
(1.80894449 0.0195756633 0.00217515984)
(1.80437935 0.0102297606 0.00205593555)
(1.80118126 0.00192551098 0.0019183316)
(1.79921764 -0.00526976522 0.00176793921)
(1.79838714 -0.0113336404 0.00160630416)
(1.79859364 -0.0162716253 0.00143353469)
(1.79972696 -0.0200988193 0.00125091953)
(1.80164927 -0.0228245379 0.00106230457)
(1.80418727 -0.0244436427 0.00087406308)
(1.80713055 -0.024936476 0.000694076345)
(1.8102365 -0.0242767705 0.000530131404)
(1.81324036 -0.0224453994 0.000388324438)
(1.81586953 -0.0194465734 0.000272136208)
(1.81786106 -0.0153228432 0.000182312939)
(4.39624544 0.0195352787 0.340772082)
(3.86708112 0.0499438326 0.525224048)
(3.29703671 0.0713006048 0.415037763)
(2.7381912 0.0846636043 0.261051604)
(2.36485129 0.0912818584 0.145496692)
(2.14584859 0.0924509171 0.0735617448)
(2.01120091 0.0894662997 0.034574074)
(1.92739742 0.0834790425 0.0157628264)
(1.87663249 0.0754082198 0.00746072906)
(1.8454335 0.0659551789 0.00414297858)
(1.82517183 0.0556533948 0.00299393611)
(1.81128278 0.0449215064 0.00265150592)
(1.80140328 0.0341088827 0.00253234908)
(1.79424501 0.0235216572 0.00243464949)
(1.78910178 0.0134279558 0.00230979516)
(1.78559253 0.00405231111 0.00215734078)
(1.78350966 -0.00443029219 0.00198574669)
(1.78273551 -0.0118941307 0.0018006774)
(1.78319605 -0.0182551401 0.00160390752)
(1.78482688 -0.0234580137 0.00139596181)
(1.78754603 -0.0274611504 0.0011788771)
(1.7912331 -0.0302242976 0.000957559577)
(1.79571569 -0.0317021272 0.000739564754)
(1.80076408 -0.0318456885 0.000533797444)
(1.80609415 -0.0306113704 0.000348838482)
(1.81137882 -0.0279753018 0.000191550585)
(1.81626681 -0.0239506463 6.61441605e-05)
(1.82040736 -0.0186037561 -2.62700045e-05)
(4.39590638 0.0160547473 0.340913933)
(3.8649657 0.0410884584 0.525632804)
(3.29182634 0.0588659031 0.415557179)
(2.72929604 0.070303947 0.261507892)
(2.35257488 0.0763338836 0.145846123)
(2.13083196 0.0778632738 0.0738449447)
(1.99411517 0.0758127745 0.0348362769)
(1.90888098 0.0710267124 0.0160228402)
(1.85723674 0.064205542 0.00772000049)
(1.82560278 0.0559113966 0.00439729865)
(1.8052541 0.0465982456 0.00323771767)
(1.79154499 0.0366450808 0.00287977442)
(1.78204674 0.0263863224 0.00274182385)
(1.77542136 0.0161291089 0.00262356619)
(1.7709294 0.00615499806 0.00247711994)
(1.76817341 -0.0032868569 0.00230206941)
(1.76694532 -0.0119858459 0.00210680487)
(1.76714238 -0.0197706816 0.00189689039)
(1.76871511 -0.0265040583 0.00167405591)
(1.77162739 -0.0320719931 0.00143906391)
(1.7758229 -0.0363719085 0.00119452258)
(1.78119743 -0.0393034164 0.000946054116)
(1.78757886 -0.0407651672 0.000701878021)
(1.79471655 -0.0406592933 0.000471562723)
(1.8022814 -0.038903756 0.000264558145)
(1.80987717 -0.0354510605 8.87096692e-05)
(1.81706315 -0.0303100342 -5.09112527e-05)
(1.82338625 -0.0235656774 -0.000152617881)
(4.39564526 0.0131935386 0.34102456)
(3.86334633 0.0337857884 0.525952762)
(3.28783388 0.0485073436 0.415968814)
(2.72241828 0.0581360857 0.261879308)
(2.34294424 0.0633803533 0.146143431)
(2.11885041 0.064886404 0.0740955927)
(1.98023838 0.0633110323 0.035070685)
(1.89357095 0.0592703022 0.0162533982)
(1.84091537 0.0532915014 0.00794766076)
(1.80862962 0.0458166424 0.00461945)
(1.787928 0.0372220115 0.00345093548)
(1.77411083 0.027839505 0.00308108926)
(1.76470436 0.0179768996 0.00292933665)
(1.75833666 0.00792882849 0.00279622219)
(1.75424673 -0.00202419648 0.00263409845)
(1.75202836 -0.0116224485 0.00244257439)
(1.75147914 -0.0206325244 0.00222990191)
(1.75251348 -0.0288482116 0.0020013124)
(1.75510696 -0.0360854044 0.00175843013)
(1.75925218 -0.0421727917 0.00150222662)
(1.76491901 -0.046942119 0.00123557821)
(1.77201992 -0.0502216679 0.000964338038)
(1.78038249 -0.0518363776 0.000697080144)
(1.78973232 -0.0516168479 0.000443996836)
(1.79968834 -0.0494178619 0.000215341813)
(1.80977262 -0.0451448934 1.98805806e-05)
(1.81943613 -0.0387846755 -0.000136296314)
(1.82809887 -0.0304333033 -0.000250614501)
(4.3954388 0.0108045804 0.341111959)
(3.86207209 0.0276735894 0.52620694)
(3.28469055 0.039769492 0.416298966)
(2.71696429 0.0477342908 0.262182569)
(2.3352156 0.0521073106 0.146393239)
(2.10909504 0.0533511868 0.0743116245)
(1.96876068 0.0519346567 0.0352741954)
(1.88069961 0.0483041027 0.0164525551)
(1.82696697 0.0428508201 0.00814283961)
(1.79388824 0.0359154524 0.00480882383)
(1.77264288 0.0278021626 0.00363224233)
(1.75849871 0.0187930495 0.00325244485)
(1.74895457 0.00916190957 0.00308955655)
(1.74261891 -0.000819183619 0.00294453083)
(1.73872059 -0.0108818834 0.00276993131)
(1.73685508 -0.0207672255 0.00256536119)
(1.73683313 -0.0302299233 0.00233863487)
(1.73859216 -0.0390377734 0.00209469378)
(1.74213882 -0.0469654919 0.00183514198)
(1.74750046 -0.053785317 0.00156091835)
(1.75467919 -0.059257783 0.00127485418)
(1.76360938 -0.0631267497 0.00098285974)
(1.77412161 -0.0651226582 0.000693735913)
(1.78591668 -0.064977127 0.000418134492)
(1.79855328 -0.0624501327 0.000167090957)
(1.81145353 -0.0573686532 -4.94994019e-05)
(1.82393081 -0.0496721224 -0.000224159564)
(1.83523937 -0.0394559824 -0.000352972408)
(4.39527149 0.00878785153 0.341182218)
(3.86104296 0.0225039767 0.526412496)
(3.28215013 0.0323339691 0.416567954)
(2.71252975 0.0387895883 0.262432705)
(2.3288678 0.042274602 0.146603358)
(2.100981 0.043116735 0.074496639)
(1.95907807 0.0416479015 0.0354496474)
(1.86967648 0.0381874374 0.0166239141)
(1.81483488 0.033019733 0.00831000902)
(1.78086506 0.0264004304 0.00497036805)
(1.75892954 0.0185680796 0.00378653124)
(1.74427961 0.00975459897 0.00339813604)
(1.73440057 0.000194708626 0.00322573236)
(1.72789333 -0.0098698328 0.00307070064)
(1.72398817 -0.0201919719 0.0028858481)
(1.72229239 -0.0305236955 0.00267034928)
(1.72263889 -0.0406180219 0.0024315894)
(1.72499833 -0.0502255768 0.00217427697)
(1.7294195 -0.0590858922 0.00189980403)
(1.73597677 -0.0669157802 0.00160887058)
(1.74471773 -0.073398499 0.00130410069)
(1.75561195 -0.0781784851 0.000991294137)
(1.76850368 -0.0808665929 0.000679369541)
(1.78307315 -0.0810603999 0.000379446733)
(1.79881183 -0.0783824644 0.000103532133)
(1.81501905 -0.0725366352 -0.000136983899)
(1.83082872 -0.063377132 -0.000332816462)
(1.84527164 -0.0509783978 -0.000478068155)
(4.39513269 0.00707364245 0.341239921)
(3.86019095 0.0181034255 0.526582129)
(3.28004451 0.0259744002 0.416791132)
(2.70883453 0.0310760238 0.262642022)
(2.32353168 0.0336993385 0.146781625)
(2.09408338 0.0340688063 0.0746557232)
(1.95074015 0.0324142622 0.0356014561)
(1.86004985 0.0289585874 0.0167722127)
(1.80408209 0.0239013356 0.00845438373)
(1.7691461 0.0174264874 0.00510958531)
(1.7463989 0.00971301279 0.00391928646)
(1.73108612 0.000942766029 0.00352329012)
(1.72068966 -0.008692601 0.00334270218)
(1.71381312 -0.0189880605 0.00317948571)
(1.70969789 -0.0297265654 0.00298616518)
(1.70797221 -0.0406814614 0.00276138181)
(1.70850226 -0.0516150508 0.00251215353)
(1.71130486 -0.0622710968 0.00224282883)
(1.71648684 -0.0723617541 0.00195433687)
(1.72418886 -0.0815511823 0.00164693902)
(1.73452654 -0.0894401941 0.00132287339)
(1.74752865 -0.0955575317 0.000987709092)
(1.76307521 -0.0993643108 0.0006504171)
(1.78084023 -0.10027877 0.000322636929)
(1.80024678 -0.0977273036 1.75608174e-05)
(1.82044625 -0.0912248674 -0.000251455396)
(1.84033669 -0.0804800154 -0.000472601039)
(1.85863909 -0.0655089287 -0.000636958183)
(4.39501505 0.00561234745 0.341288462)
(3.85946902 0.0143480386 0.526725173)
(3.27825706 0.0205272846 0.416979925)
(2.70568218 0.0244269695 0.262820102)
(2.31894393 0.0262426167 0.146934752)
(2.08809289 0.0261169949 0.0747937593)
(1.94341218 0.0242017495 0.0357339456)
(1.85147681 0.0206451294 0.0169018375)
(1.79436979 0.0155783196 0.00858051987)
(1.75840335 0.00912405764 0.00523107506)
(1.7347352 0.00140642317 0.00403490532)
(1.71861176 -0.00744294437 0.00363224628)
(1.70751883 -0.0172786954 0.00344509561)
(1.70006969 -0.0279389997 0.00327539418)
(1.69552364 -0.0392463237 0.00307513313)
(1.69353857 -0.0510070943 0.00284256176)
(1.69402509 -0.06300611 0.00258425498)
(1.69706133 -0.0749938933 0.00230393217)
(1.70283248 -0.0866670651 0.00200186042)
(1.71157232 -0.0976442987 0.00167763884)
(1.7234979 -0.107442361 0.00133293093)
(1.73873576 -0.115458867 0.000972896466)
(1.75724099 -0.120970638 0.00060642714)
(1.77871341 -0.12315876 0.000245684067)
(1.80251994 -0.121171796 -9.4726133e-05)
(1.8276413 -0.114236701 -0.000398893481)
(1.85266675 -0.10181712 -0.000651312563)
(1.8758805 -0.0838010344 -0.000838213117)
(4.39491338 0.00436795634 0.34133033)
(3.85884436 0.0111476519 0.526848425)
(3.27670624 0.0158726494 0.417142732)
(2.70293429 0.0187183475 0.262974197)
(2.31491669 0.0197989267 0.147068096)
(2.08278555 0.0191911059 0.0749148535)
(1.93684782 0.016985153 0.0358507577)
(1.84370102 0.01327038 0.0170163469)
(1.78544072 0.00812186143 0.00869190917)
(1.74838335 0.00160884393 0.00533810475)
(1.72368944 -0.00619631263 0.00413662796)
(1.70660972 -0.0152120645 0.00372873735)
(1.69463722 -0.0253428575 0.00353661651)
(1.68639784 -0.0364775146 0.00336179643)
(1.68117303 -0.048488806 0.00315599606)
(1.67865689 -0.0612301747 0.00291705589)
(1.67881474 -0.0745258789 0.00265086488)
(1.68180176 -0.0881520974 0.00236032716)
(1.68790534 -0.101808878 0.00204481063)
(1.69748668 -0.115084915 0.00170302239)
(1.71091048 -0.127419473 0.00133578164)
(1.72845882 -0.138069052 0.00094755672)
(1.75022671 -0.146090347 0.000546922948)
(1.77600129 -0.15035613 0.000146489786)
(1.8051327 -0.149624607 -0.000237476682)
(1.83642092 -0.142684684 -0.000585854293)
(1.86805931 -0.128589736 -0.000877499239)
(1.89770806 -0.10696694 -0.00109051989)
(4.39482405 0.0033137502 0.341367316)
(3.85829408 0.00843523821 0.526956761)
(3.27533519 0.0119207665 0.417285614)
(2.70049389 0.0138564011 0.263109637)
(2.31131732 0.0142875288 0.14718573)
(2.07800171 0.0132369914 0.0750222138)
(1.93086985 0.0107460043 0.0359547231)
(1.83653651 0.0068565579 0.0171183561)
(1.77710651 0.00159663757 0.00879086119)
(1.7388985 -0.00501248563 0.00543290476)
(1.71307577 -0.0129470666 0.00422735233)
(1.69489305 -0.0221757695 0.0038156801)
(1.68184936 -0.0326572954 0.0036197044)
(1.67258248 -0.0443393231 0.00344092289)
(1.66639668 -0.0571570897 0.00323085379)
(1.66302513 -0.0710279475 0.00298674911)
(1.66249489 -0.0858374607 0.0027136429)
(1.6650525 -0.101414035 0.00241339991)
(1.6711129 -0.117490881 0.00208424754)
(1.68120531 -0.133655912 0.0017236907)
(1.69590237 -0.149292874 0.00133134195)
(1.71572389 -0.163521197 0.000910584205)
(1.74100651 -0.175148322 0.000469331771)
(1.77173392 -0.182657776 2.05246453e-05)
(1.80732997 -0.184267222 -0.000417509105)
(1.84644059 -0.178102563 -0.000821284513)
(1.8867702 -0.162529518 -0.00116063365)
(1.92508415 -0.136659917 -0.00140028514)
(4.39474458 0.00242932612 0.34140066)
(3.85780247 0.00615952121 0.527053591)
(3.27410503 0.00860265181 0.417412841)
(2.69829457 0.00976841395 0.263230202)
(2.30805476 0.00964516253 0.147290593)
(2.0736316 0.00821203524 0.0751181577)
(1.92535657 0.00547091158 0.0360477903)
(1.82985582 0.00142509889 0.0172093964)
(1.76923829 -0.00393796909 0.00887876223)
(1.72982208 -0.0106395413 0.0055177126)
(1.7027701 -0.0187013925 0.00430942922)
(1.68333638 -0.0281434266 0.00389482095)
(1.66902094 -0.0389830632 0.00369582914)
(1.65846866 -0.0512350795 0.00351407514)
(1.65100206 -0.0649105644 0.00330074581)
(1.64639044 -0.0800105845 0.00305236414)
(1.64472374 -0.0965095869 0.00277292598)
(1.64634905 -0.114324419 0.00246302073)
(1.65183156 -0.133265881 0.00211940818)
(1.6619122 -0.152970932 0.00173798064)
(1.67744484 -0.172815961 0.00131666039)
(1.69929802 -0.191815945 0.000857232474)
(1.72820194 -0.208523157 0.000366537307)
(1.76452077 -0.220954483 -0.000142273778)
(1.80793502 -0.226599337 -0.000648018018)
(1.85705059 -0.222593357 -0.00112000803)
(1.90901595 -0.206153988 -0.00151189083)
(1.95932665 -0.175389191 -0.00176533412)
(4.39467329 0.00169845578 0.341431182)
(3.85735918 0.00427964681 0.527141191)
(3.27299029 0.00586301302 0.417527286)
(2.69629311 0.00639548005 0.263338476)
(2.30507014 0.0058197719 0.147384684)
(2.06960526 0.00408060897 0.0752042018)
(1.92023181 0.00114846698 0.036130916)
(1.82358078 -0.00300595232 0.01729017)
(1.76176102 -0.00842882372 0.00895735741)
(1.72108556 -0.0151782266 0.00559451005)
(1.69270981 -0.0233193041 0.00438412409)
(1.67187953 -0.0329235995 0.00396711427)
(1.65608738 -0.0440703996 0.00376576758)
(1.64397534 -0.0568490887 0.00358173845)
(1.63487293 -0.0713601416 0.00336577026)
(1.62857442 -0.0877101622 0.00311350362)
(1.62522414 -0.105995296 0.00282767385)
(1.62526827 -0.126267456 0.00250725094)
(1.62943546 -0.148477643 0.00214705104)
(1.63871749 -0.172390328 0.00174074993)
(1.65433005 -0.19746342 0.00128389447)
(1.67763023 -0.222691478 0.000776046062)
(1.70995736 -0.246419481 0.000222723296)
(1.75235019 -0.266155503 -0.000362287134)
(1.80508579 -0.278451965 -0.00095320671)
(1.86703484 -0.278999012 -0.00150754241)
(1.9348361 -0.263108863 -0.00194977925)
(2.00226178 -0.226967422 -0.00218368787)
(4.39460914 0.00110749777 0.34145937)
(3.85695793 0.00276118119 0.52722096)
(3.27197582 0.00365483086 0.417630734)
(2.69446423 0.00368669442 0.263436057)
(2.30233016 0.00276513948 0.147469183)
(2.06588498 0.000809375865 0.0752809101)
(1.9154566 -0.00223581644 0.0362042397)
(1.81767669 -0.00642537534 0.0173620924)
(1.75464984 -0.0118314854 0.00902840148)
(1.7126758 -0.0185446499 0.0056642533)
(1.68289405 -0.0266702501 0.00445207309)
(1.66053251 -0.0363295642 0.00403304342)
(1.64306416 -0.0476646721 0.0038297311)
(1.62911241 -0.0608447131 0.00364373737)
(1.61799472 -0.0760711418 0.00342522913)
(1.60950838 -0.0935773892 0.0031687542)
(1.60382912 -0.113616798 0.00287542038)
(1.60148288 -0.136431816 0.0025420112)
(1.60335469 -0.162195579 0.0021605889)
(1.61070785 -0.190914054 0.00172155177)
(1.62519215 -0.222273661 0.00121686547)
(1.64881197 -0.255417766 0.000642925188)
(1.68380199 -0.288640713 4.12604379e-06)
(1.73232321 -0.319008505 -0.000681883391)
(1.79585535 -0.341978723 -0.00137552325)
(1.87420571 -0.351210789 -0.00200985831)
(1.96387818 -0.33886442 -0.00245712494)
(2.05655555 -0.297405966 -0.00259401961)
(4.3945516 0.000644123945 0.341485455)
(3.85659558 0.00157300339 0.527293614)
(3.27105449 0.00193515772 0.417724147)
(2.69279691 0.00159447032 0.26352372)
(2.29982195 0.00043601925 0.147544405)
(2.06245827 -0.00163860052 0.0753481122)
(1.9110238 -0.00470403806 0.0362689489)
(1.81214837 -0.00883220401 0.0174268043)
(1.74792504 -0.0141157847 0.00909263406)
(1.70463199 -0.020672351 0.00572735064)
(1.67338417 -0.0286416468 0.00451356824)
(1.64938008 -0.0381899289 0.00409268138)
(1.63005724 -0.0495192272 0.00388747657)
(1.61399945 -0.0628788808 0.00369938623)
(1.60048465 -0.0785775888 0.00347780323)
(1.58927824 -0.0969918263 0.00321581822)
(1.58054537 -0.118564718 0.00291229042)
(1.57484539 -0.143787539 0.00256082124)
(1.57317741 -0.173152235 0.00214920311)
(1.57705515 -0.207056725 0.00166241148)
(1.58859565 -0.245635131 0.00108614288)
(1.61059322 -0.288473392 0.000410927386)
(1.64651227 -0.334162058 -0.000361052208)
(1.70026601 -0.379646163 -0.00120281226)
(1.77558232 -0.419415416 -0.00203990418)
(1.87462341 -0.444596635 -0.00273827645)
(1.99504526 -0.4424453 -0.00301809487)
(2.1268653 -0.398049902 -0.00277221421)
(4.39450058 0.00029618379 0.341509557)
(3.85627163 0.000684824802 0.52735945)
(3.27022558 0.000662079501 0.417807827)
(2.69129113 7.02869355e-05 0.263601443)
(2.29754765 -0.00121700745 0.147610163)
(2.05933348 -0.0033082465 0.0754067659)
(1.90695444 -0.00628889102 0.036326662)
(1.80703387 -0.0102415287 0.017484862)
(1.74164629 -0.0152735003 0.00915028565)
(1.69704191 -0.0215214025 0.00578393644)
(1.66430231 -0.0291508543 0.00456858461)
(1.63858397 -0.0383645301 0.00414579497)
(1.61727111 -0.0494160201 0.0039384822)
(1.59888293 -0.0626277645 0.0037477296)
(1.58262279 -0.0784121965 0.00352183362)
(1.56817611 -0.0972932787 0.00325184382)
(1.55563318 -0.119923947 0.0029333477)
(1.54550529 -0.14709262 0.00255502163)
(1.53881017 -0.179706662 0.00209755725)
(1.53721735 -0.218730104 0.00153620632)
(1.54325333 -0.265034659 0.000844363516)
(1.56055428 -0.319093913 -8.67836015e-07)
(1.5941068 -0.380411906 -0.00100699209)
(1.65033421 -0.446570618 -0.00214245393)
(1.73677909 -0.511796541 -0.00330881569)
(1.86069411 -0.564761663 -0.00430272001)
(2.02470845 -0.586411585 -0.00455049832)
(2.2216497 -0.547775883 -0.00400106688)
(4.39445657 5.16452895e-05 0.341532045)
(3.85598841 6.58440915e-05 0.527418778)
(3.26949322 -0.000208905841 0.417881481)
(2.68995415 -0.000938889701 0.263669182)
(2.29552141 -0.00225061228 0.147667168)
(2.05653673 -0.00425429794 0.0754583469)
(1.90329106 -0.00703861231 0.0363777929)
(1.80239696 -0.0106912262 0.017536331)
(1.7359062 -0.0153260211 0.00920131797)
(1.69003581 -0.0210887984 0.00583386933)
(1.65582615 -0.0281597826 0.00461687125)
(1.6283799 -0.0367648669 0.00419200753)
(1.60501056 -0.047193817 0.00398217004)
(1.58414652 -0.0598247997 0.0037878362)
(1.5648773 -0.0751558116 0.00355575214)
(1.54674998 -0.0938425443 0.00327408067)
(1.52969493 -0.116741388 0.00293355418)
(1.51405455 -0.144954918 0.00251501694)
(1.50070172 -0.179872359 0.00198693782)
(1.49125727 -0.223185478 0.00130631195)
(1.48843882 -0.276834688 0.000420955011)
(1.49657374 -0.342787931 -0.00072301557)
(1.52227875 -0.422465411 -0.00216059381)
(1.57523308 -0.51559354 -0.00388444252)
(1.66886262 -0.617862074 -0.00586419617)
(1.81966014 -0.716585707 -0.00801534035)
(2.04410333 -0.785246108 -0.00990030766)
(2.35193968 -0.764481413 -0.0115832859)
(4.39442005 -0.000101281069 0.341552735)
(3.85574822 -0.000316563128 0.527471089)
(3.26886363 -0.000727060894 0.417944879)
(2.68879931 -0.0014920005 0.263727272)
(2.29376691 -0.00272991021 0.147716263)
(2.05410557 -0.00454493116 0.0755030584)
(1.90009004 -0.00702211964 0.0364221878)
(1.79831989 -0.0102471196 0.017580952)
(1.7308218 -0.0143314581 0.00924542056)
(1.68377663 -0.0194189644 0.00587680383)
(1.64817825 -0.025690449 0.00465807585)
(1.61906696 -0.033377165 0.0042309493)
(1.59367178 -0.0427821483 0.00401810819)
(1.57030764 -0.0543099899 0.00381912931)
(1.54791324 -0.0685074877 0.00357867213)
(1.52583724 -0.086117766 0.00328095475)
(1.50375349 -0.108151583 0.00290970006)
(1.48168279 -0.135981204 0.00243356761)
(1.46011754 -0.171461944 0.00180017111)
(1.44028145 -0.217081006 0.000931461642)
(1.42460432 -0.276113745 -0.000281405203)
(1.41754336 -0.35270473 -0.00197498897)
(1.42693764 -0.451747309 -0.00429853849)
(1.46612513 -0.578122564 -0.00742545233)
(1.55707296 -0.734108948 -0.0117107806)
(1.73183297 -0.912544886 -0.0175743303)
(2.03917279 -1.08003966 -0.0256204577)
(2.51708633 -1.09903428 -0.0278911736)