/*--------------------------------*- C++ -*----------------------------------*\
| =========                 |                                                 |
| \\      /  F ield         | foam-extend: Open Source CFD                    |
|  \\    /   O peration     | Version:     4.1                                |
|   \\  /    A nd           | Web:         http://www.foam-extend.org         |
|    \\/     M anipulation  |                                                 |
\*---------------------------------------------------------------------------*/
FoamFile
{
    version     2.0;
    format      ascii;
    class       volVectorField;
    location    "0.1";
    object      U_0;
}
// * * * * * * * * * * * * * * * * * * * * * * * * * * * * * * * * * * * * * //

dimensions      [0 1 -1 0 0 0 0];

internalField   nonuniform List<vector> 
35840
(
(3.94086135 0.268528216 0.261844791)
(3.20795554 0.371831936 0.357382109)
(2.438293 0.266510088 0.249866395)
(1.72032295 0.1569517 0.141987897)
(1.2936041 0.0888276754 0.0772391186)
(1.05206043 0.0517376209 0.0439659813)
(0.893247153 0.0312108283 0.0271310925)
(0.785028802 0.0189779433 0.0181052087)
(0.711602565 0.0114732734 0.0131296017)
(0.660199848 0.00686261883 0.0103417538)
(0.622625727 0.00398171083 0.00865488936)
(0.594177751 0.00213977805 0.00750652812)
(0.571991663 0.000947695361 0.00664854009)
(0.554205902 0.000173489431 0.005976098)
(0.5395792 -0.000328893843 0.00544070698)
(0.527267096 -0.000651788745 0.00501294616)
(0.516685575 -0.000852778838 0.00466678011)
(0.507430392 -0.000967776748 0.0043748806)
(0.499230382 -0.0010194425 0.0041099703)
(0.491912913 -0.00102165754 0.00384835121)
(0.485370571 -0.000983292611 0.00357265835)
(0.479539018 -0.000911346226 0.00327324399)
(0.474377061 -0.000811935576 0.0029480568)
(0.469850891 -0.000690634293 0.00260154366)
(0.465922577 -0.00055249762 0.00224280034)
(0.462543087 -0.000401959254 0.00188325332)
(0.459649487 -0.000243215119 0.00153484377)
(0.457166271 -8.04655387e-05 0.00120857859)
(4.52125059 0.409951838 0.331400602)
(4.20224971 0.638133335 0.509004816)
(3.6367664 0.543498102 0.407286993)
(2.94287441 0.391304604 0.261524747)
(2.41558083 0.267522732 0.152247249)
(2.06100468 0.181541931 0.0860138712)
(1.8084762 0.123969986 0.0503056927)
(1.62434903 0.0849049758 0.0317713572)
(1.49061973 0.0581969643 0.0220262865)
(1.39174358 0.0399942897 0.0167517361)
(1.31643141 0.0275615365 0.0136961044)
(1.25753945 0.0190040942 0.0117166342)
(1.21040848 0.0130593482 0.0103024249)
(1.17184091 0.00887388434 0.00924298927)
(1.1396202 0.00586135721 0.00844406976)
(1.11221065 0.00362368113 0.00785007606)
(1.08854813 0.00190023515 0.00741372415)
(1.06790237 0.000530270445 0.00708585704)
(1.0497779 -0.000576300174 0.00681556081)
(1.03384128 -0.00146236455 0.00655455861)
(1.01987371 -0.00214314453 0.00626312467)
(1.00772124 -0.00262130383 0.00591458288)
(0.997257703 -0.00289717957 0.00549665321)
(0.988360936 -0.00297474576 0.00501009862)
(0.980896178 -0.00286419829 0.00446646796)
(0.974708476 -0.00258212149 0.00388478288)
(0.969621736 -0.00215086269 0.00328722072)
(0.965442805 -0.00159761781 0.00269596876)
(4.44213482 0.221358869 0.337952718)
(4.0827878 0.436504476 0.518824554)
(3.65714593 0.46310239 0.418104918)
(3.13712564 0.408852551 0.275913176)
(2.7197507 0.331887837 0.166485567)
(2.42173 0.257539629 0.0961322606)
(2.19798526 0.195465925 0.056488845)
(2.02634581 0.146641753 0.0358626662)
(1.89517732 0.109209493 0.0252366605)
(1.79335576 0.0810141732 0.019574718)
(1.71227254 0.0600589963 0.01630535)
(1.6463566 0.0446113835 0.0141503898)
(1.59186232 0.0332419901 0.0125497298)
(1.54607985 0.0248022319 0.0112937698)
(1.50702624 0.0183941241 0.0103045931)
(1.47326494 0.0133469839 0.0095407407)
(1.44376626 0.00919322127 0.00896357309)
(1.41780507 0.00563926156 0.00852731265)
(1.39488285 0.00253105994 0.00817964538)
(1.37466371 -0.000184608302 0.00786730593)
(1.35691693 -0.00249794888 0.00754266591)
(1.34147534 -0.00436978549 0.00716939233)
(1.32819575 -0.00575747191 0.00672559776)
(1.3169325 -0.00663264322 0.00620431281)
(1.30752073 -0.00699028489 0.00561151704)
(1.29976753 -0.00685094427 0.00496344581)
(1.29345281 -0.00625850133 0.00428261793)
(1.28833484 -0.00527563274 0.00359331823)
(4.41370855 0.123366246 0.337930204)
(3.97527389 0.285976521 0.516849419)
(3.5261441 0.346906088 0.410961094)
(3.04825728 0.341727832 0.267078994)
(2.69645868 0.304702534 0.158708188)
(2.46037557 0.256356157 0.0893162908)
(2.28790259 0.208329971 0.0503170431)
(2.15581386 0.165821443 0.0305522246)
(2.05357569 0.130207094 0.0209916721)
(1.97219709 0.101307164 0.0163976298)
(1.9051783 0.0783925961 0.0140881952)
(1.84870621 0.0605279489 0.0127310563)
(1.80042178 0.0467226845 0.0117411738)
(1.75864397 0.0360210126 0.0109158861)
(1.72211033 0.0275672174 0.0102045969)
(1.68986928 0.0206547133 0.00959922291)
(1.66120958 0.0147548806 0.00909403225)
(1.63561288 0.00952286006 0.00867346777)
(1.61271571 0.00478137941 0.00831123518)
(1.59227255 0.000487537669 0.0079746709)
(1.57411928 -0.00331053132 0.00763070129)
(1.55813818 -0.006517755 0.00725125302)
(1.54422784 -0.00903124552 0.00681678561)
(1.53227932 -0.0107695147 0.00631833897)
(1.52216036 -0.0116898248 0.00575751831)
(1.51370692 -0.0117951106 0.00514489558)
(1.50672228 -0.0111325067 0.00449767841)
(1.50098268 -0.00978663385 0.00383605481)
(4.40562925 0.083882771 0.33853171)
(3.92709364 0.205850577 0.518674409)
(3.43457386 0.264590829 0.409542373)
(2.94270466 0.274589591 0.261054186)
(2.60534954 0.257642669 0.150323974)
(2.39672024 0.227952991 0.0805910667)
(2.25520765 0.194127545 0.0420948979)
(2.15299853 0.161222019 0.0231486013)
(2.07723079 0.131581026 0.0145378727)
(2.01815719 0.105992001 0.01091052)
(1.96940556 0.0845308541 0.00952253172)
(1.92765682 0.0669203376 0.0090064314)
(1.89116496 0.0526711498 0.0087475692)
(1.85884844 0.0411734673 0.00852411909)
(1.82995881 0.0317829501 0.00828130743)
(1.80394915 0.0239011824 0.00801910591)
(1.78040928 0.0170397518 0.00774838488)
(1.75903657 0.0108586769 0.00747593748)
(1.73961905 0.00517575511 0.0072006978)
(1.72201733 -4.982454e-05 0.00691499818)
(1.70614582 -0.00475274238 0.00660796537)
(1.69194813 -0.00880499626 0.00626871061)
(1.67937655 -0.0120605494 0.00588871504)
(1.66837377 -0.0143919007 0.00546386247)
(1.65885921 -0.0157151404 0.00499549615)
(1.65072189 -0.0160030415 0.00449017441)
(1.64381799 -0.0152873412 0.00395893172)
(1.63797513 -0.0136533539 0.0034154238)
(4.40178247 0.0613521153 0.339166479)
(3.90241573 0.153199717 0.520521228)
(3.38072661 0.204360888 0.410115136)
(2.86916268 0.221025852 0.258765199)
(2.52739816 0.215731969 0.145984894)
(2.32459492 0.198123104 0.0755106117)
(2.19464909 0.174680273 0.0369602386)
(2.10699011 0.149729112 0.0182148526)
(2.04662814 0.125721702 0.00992205152)
(2.00244467 0.10382533 0.00666558565)
(1.96738876 0.0845293162 0.00566573694)
(1.93788088 0.0679553058 0.00554094247)
(1.91215294 0.0539769536 0.00566271839)
(1.88923542 0.0422888621 0.00579062889)
(1.86854941 0.0324773222 0.00585327864)
(1.84972298 0.0240977733 0.00584065988)
(1.83249828 0.0167477553 0.00576138021)
(1.81669225 0.0101220674 0.00562728168)
(1.80217995 0.00404161886 0.00544828915)
(1.78888154 -0.00154505154 0.00523142356)
(1.77675147 -0.00658240251 0.00498167836)
(1.76576145 -0.0109430776 0.00470239575)
(1.75588732 -0.0144697605 0.00439589346)
(1.74709588 -0.0170133768 0.00406440634)
(1.73933495 -0.0184627622 0.00371094331)
(1.73252799 -0.0187632666 0.00333979714)
(1.72657192 -0.0179244121 0.0029567781)
(1.72134005 -0.0160182149 0.0025688891)
(4.39956864 0.0466806305 0.339655593)
(3.88829984 0.117695867 0.521961726)
(3.3482942 0.161189682 0.411285273)
(2.82096583 0.180090461 0.258580512)
(2.47108892 0.181409572 0.144562821)
(2.26649348 0.171604133 0.0734736503)
(2.13903616 0.155549013 0.0347187999)
(2.05678808 0.136739009 0.0159242109)
(2.0035286 0.117394036 0.0076432018)
(1.96717106 0.0987811013 0.00442501878)
(1.94005299 0.0815998977 0.00347355688)
(1.91823643 0.0662121361 0.00340745534)
(1.89976123 0.0527387645 0.00360085331)
(1.88358442 0.0411103193 0.00380936659)
(1.86913077 0.0311172103 0.00395354076)
(1.85607072 0.0224717302 0.00401563427)
(1.84419866 0.0148749212 0.00399915481)
(1.83337618 0.00807519702 0.00391441831)
(1.82350703 0.00190778061 0.00377353029)
(1.81452323 -0.0036900269 0.00358895324)
(1.80637476 -0.00868467372 0.00337309874)
(1.79901921 -0.0129701919 0.00313685939)
(1.79241327 -0.0164020835 0.00288897809)
(1.78650503 -0.0188324753 0.00263583829)
(1.78122868 -0.0201406538 0.00238166197)
(1.776502 -0.0202552778 0.00212915073)
(1.77222654 -0.0191669189 0.00188005928)
(1.76829034 -0.0169308716 0.00163568277)
(4.39821739 0.0366399036 0.340045336)
(3.87961038 0.0929527309 0.52311788)
(3.32759524 0.129511507 0.412511329)
(2.788536 0.14813096 0.25914573)
(2.43100644 0.152937962 0.14440368)
(2.2227245 0.148192903 0.0729178836)
(2.09449081 0.137437037 0.034029141)
(2.01361433 0.123365991 0.0151927485)
(1.96316425 0.107844807 0.00688462433)
(1.93044825 0.0920856836 0.00363244777)
(1.90738451 0.0768715191 0.00263380591)
(1.88976384 0.0627022312 0.00251194148)
(1.8754595 0.0498632448 0.00264958124)
(1.86334416 0.0384590263 0.00280749901)
(1.85281956 0.0284455399 0.00290735634)
(1.84357054 0.0196757406 0.00293079048)
(1.83542094 0.0119553062 0.00288054707)
(1.82825948 0.00509747675 0.00276679101)
(1.82200364 -0.00103438499 0.00260244065)
(1.81658288 -0.006502694 0.0024021075)
(1.81192486 -0.0112907555 0.00218118019)
(1.80795106 -0.0153156288 0.0019536872)
(1.80457177 -0.0184529102 0.00173115953)
(1.80168433 -0.020566471 0.00152174505)
(1.7991734 -0.0215374277 0.00132990748)
(1.79691308 -0.021287947 0.00115698258)
(1.79477093 -0.0197969655 0.00100159917)
(1.79261279 -0.0171071586 0.000860780072)
(4.39732333 0.0293659836 0.340352134)
(3.87388703 0.0747757723 0.524013913)
(3.31370932 0.105373659 0.41355123)
(2.76602988 0.12258565 0.259844062)
(2.40208356 0.129009048 0.14468121)
(2.18990763 0.127438101 0.0729607781)
(2.05979516 0.120382956 0.034005942)
(1.97861121 0.109870762 0.0151618262)
(1.92897811 0.0974059836 0.00684644048)
(1.89779817 0.0840678022 0.00357174372)
(1.87669072 0.0706347534 0.00253129948)
(1.86124389 0.057667181 0.00235114839)
(1.84920275 0.0455468963 0.0024207525)
(1.83937364 0.0344949487 0.0025067731)
(1.83114171 0.0245896716 0.0025344815)
(1.82420923 0.0157980804 0.00248782046)
(1.81843407 0.00802011667 0.00237142386)
(1.81373959 0.00113677758 0.0021972095)
(1.81006701 -0.00494882662 0.00197990591)
(1.80735068 -0.0102832963 0.00173619917)
(1.80550328 -0.0148515928 0.0014832581)
(1.80441086 -0.0185818019 0.00123680082)
(1.80393203 -0.0213623638 0.00100968348)
(1.80390141 -0.0230666571 0.000810759094)
(1.80413567 -0.0235796041 0.000644554078)
(1.80444152 -0.0228214435 0.000511093597)
(1.80462415 -0.0207655331 0.000406724496)
(1.80449666 -0.0174490367 0.000325943044)
(4.3966985 0.0238529874 0.34058961)
(3.86992707 0.0608847714 0.524700268)
(3.30402065 0.0864678076 0.414385305)
(2.74995777 0.10182958 0.260494803)
(2.38080334 0.108718935 0.145079289)
(2.16502344 0.108991306 0.0732129734)
(2.0327156 0.104408681 0.0342196802)
(1.95050534 0.096472308 0.0153779578)
(1.90073228 0.0863653611 0.00706602248)
(1.87002187 0.0750067988 0.00378367508)
(1.84977514 0.0631192026 0.00272083967)
(1.83542301 0.0512683771 0.00250430457)
(1.8246066 0.0398795457 0.00252721527)
(1.8160761 0.0292419424 0.00255998784)
(1.80920151 0.0195159977 0.00253054231)
(1.80370096 0.0107538758 0.00242478961)
(1.79946643 0.00293390026 0.00224920238)
(1.79645982 -0.00399882802 0.00201752729)
(1.79465503 -0.0100943434 0.0017466174)
(1.79400342 -0.0153697212 0.00145518763)
(1.79441519 -0.0197942247 0.0011620123)
(1.7957522 -0.0232893859 0.000884259124)
(1.79782903 -0.0257415097 0.000635924543)
(1.80042004 -0.0270226273 0.000426658836)
(1.8032703 -0.0270149109 0.000260736064)
(1.80610806 -0.0256344656 0.000137297979)
(1.80865923 -0.0228514614 5.18664178e-05)
(1.81066269 -0.018704324 -2.28893019e-06)
(4.39624551 0.0195309845 0.340772796)
(3.86708068 0.0499346266 0.525227883)
(3.29702572 0.0712959184 0.415044258)
(2.73816036 0.0846883766 0.261049425)
(2.36481684 0.0913610497 0.145473521)
(2.14586442 0.0925731491 0.0735107973)
(2.01136092 0.089558602 0.0344904911)
(1.92782095 0.0834173756 0.0156504552)
(1.87741551 0.0750646325 0.00734249262)
(1.84658797 0.0652616508 0.00405762316)
(1.82658556 0.0546510972 0.00298301365)
(1.81272076 0.0437701034 0.00274552503)
(1.8025515 0.0330500705 0.00274019718)
(1.79477952 0.0228116428 0.00273946563)
(1.78875843 0.0132644581 0.00267263452)
(1.78421622 0.00452006674 0.00252657671)
(1.78107231 -0.00338147518 0.00230865634)
(1.77932402 -0.0104372241 0.00203381886)
(1.77897915 -0.016647672 0.00172051805)
(1.78001232 -0.0219895778 0.00138883318)
(1.78234055 -0.026400682 0.00105887403)
(1.7858126 -0.0297779968 0.000749197241)
(1.79020979 -0.0319878301 0.000474846859)
(1.79525397 -0.0328846678 0.000245738769)
(1.80062003 -0.0323351007 6.62369279e-05)
(1.80595328 -0.0302431352 -6.41647663e-05)
(1.8108889 -0.0265739454 -0.000149891753)
(1.81507513 -0.0213720251 -0.000198058886)
(4.3959065 0.0160511223 0.340914537)
(3.8649657 0.0410812218 0.525636415)
(3.29181698 0.0588637521 0.415563409)
(2.72926928 0.0703278333 0.261505521)
(2.35254778 0.0764019795 0.145822933)
(2.13085828 0.0779588801 0.0737942759)
(1.99428698 0.0758637511 0.0347535185)
(1.90931281 0.0709170465 0.0159123312)
(1.85801515 0.063818828 0.00760528502)
(1.82672424 0.0551883895 0.00431758715)
(1.80658504 0.0455811623 0.00323461579)
(1.79282625 0.0354865596 0.00298326244)
(1.78294355 0.0253177408 0.00295965015)
(1.77560033 0.0154005797 0.00293730549)
(1.77013534 0.00596898963 0.00284614662)
(1.76628227 -0.0028271716 0.00267329589)
(1.76398159 -0.010900775 0.00242647155)
(1.7632618 -0.0181984135 0.0021213186)
(1.7641623 -0.024670099 0.00177700101)
(1.7666829 -0.0302443865 0.00141443525)
(1.77075323 -0.0348142919 0.00105471846)
(1.77621836 -0.0382350064 0.000717122076)
(1.78283546 -0.040333455 0.000417072613)
(1.79027992 -0.0409267168 0.000164959097)
(1.79815831 -0.0398479159 -3.39456071e-05)
(1.80602762 -0.0369757828 -0.000179356186)
(1.81342069 -0.0322639424 -0.00027520992)
(1.81987702 -0.0257644541 -0.00032826237)
(4.39564544 0.0131905825 0.341025098)
(3.86334672 0.0337800927 0.525956285)
(3.28782578 0.0485064805 0.415975001)
(2.72239424 0.0581570443 0.261877025)
(2.34292125 0.0634353316 0.146120515)
(2.11888096 0.0649548028 0.0740454339)
(1.98041179 0.0633232505 0.0349887947)
(1.89399702 0.0591202416 0.0161444102)
(1.84167345 0.0528765435 0.00783550673)
(1.80970599 0.0450888483 0.00454362395)
(1.78917611 0.0362267735 0.00345304761)
(1.77525764 0.0267227278 0.00319076218)
(1.76540388 0.0169564337 0.00315360049)
(1.75825162 0.00724101268 0.00311569258)
(1.75312969 -0.00218391458 0.00300712823)
(1.74977738 -0.0111466662 0.00281513328)
(1.74815533 -0.0195257456 0.00254761115)
(1.74832059 -0.0272241461 0.0022204187)
(1.75034358 -0.0341419957 0.00185301426)
(1.75425223 -0.0401542636 0.00146672727)
(1.75999568 -0.0450977336 0.00108293517)
(1.76742327 -0.0487690112 0.000720955234)
(1.7762759 -0.0509340228 0.000396593219)
(1.78618723 -0.0513487067 0.000121044031)
(1.79669446 -0.0497894993 -9.95589062e-05)
(1.80725718 -0.0460899686 -0.000263976518)
(1.81728817 -0.040179358 -0.000375004735)
(1.82619226 -0.0321152377 -0.000438261074)
(4.39543904 0.0108022416 0.341112466)
(3.86207276 0.0276690168 0.526210484)
(3.2846832 0.0397689603 0.416305279)
(2.71694157 0.0477511047 0.262180554)
(2.3351938 0.0521486877 0.146370748)
(2.10912486 0.0533940031 0.0742620466)
(1.96892847 0.0519131249 0.0351930845)
(1.8811111 0.0481229802 0.0163447239)
(1.8276964 0.0424219631 0.00803246477)
(1.79491562 0.03520288 0.00473557902)
(1.77381453 0.0268549152 0.00363772905)
(1.75953457 0.0177499548 0.00336602829)
(1.74950363 0.00822519075 0.0033177926)
(1.74234347 -0.00143157978 0.00326741257)
(1.73737979 -0.0109887706 0.00314513854)
(1.73436262 -0.0202662405 0.00293829026)
(1.73327484 -0.0291190199 0.00265472714)
(1.73420396 -0.0374135602 0.00231031369)
(1.73725601 -0.0450024923 0.0019245988)
(1.7424946 -0.0517036725 0.00151877268)
(1.74989796 -0.0572872228 0.00111396059)
(1.75933045 -0.0614733712 0.000729469775)
(1.77052609 -0.0639430248 0.000381388758)
(1.78308199 -0.0643620181 8.15507245e-05)
(1.79646283 -0.0624188588 -0.000162781549)
(1.81001614 -0.0578726897 -0.00034896962)
(1.82300741 -0.0506068164 -0.000478148757)
(1.83466832 -0.0406767286 -0.00055427965)
(4.39527178 0.00878605573 0.341182732)
(3.86104376 0.0225001895 0.526416146)
(3.282143 0.0323331568 0.416574502)
(2.71250705 0.0388017982 0.262431062)
(2.32884478 0.0423030696 0.146581349)
(2.10100642 0.0431370067 0.0744476188)
(1.95923546 0.0415988466 0.0353691679)
(1.87006834 0.0379848995 0.0165168844)
(1.8155321 0.032589751 0.00820078125)
(1.78184432 0.0257185085 0.0048987432)
(1.76003396 0.0176864777 0.00379411631)
(1.74522646 0.00880450473 0.00351412866)
(1.73483761 -0.000638489827 0.00345636154)
(1.72748413 -0.0103889748 0.00339551845)
(1.72249742 -0.0202343019 0.00326204795)
(1.71964445 -0.0299973045 0.00304309684)
(1.71893564 -0.0395201485 0.00274638724)
(1.72049651 -0.0486411262 0.00238766197)
(1.7244788 -0.0571697162 0.00198617303)
(1.73099465 -0.0648648089 0.00156266466)
(1.74006683 -0.0714202612 0.00113784079)
(1.75159151 -0.0764614798 0.000730819832)
(1.76531078 -0.0795565274 0.000357911146)
(1.78079386 -0.0802445865 3.17303747e-05)
(1.79743003 -0.078083617 -0.00023908935)
(1.81443509 -0.0727151557 -0.000450147153)
(1.83088812 -0.0639410034 -0.000600415796)
(1.84578998 -0.0517969211 -0.000691610681)
(4.39513303 0.0070723287 0.341240467)
(3.86019173 0.0181002133 0.526585946)
(3.28003712 0.0259730351 0.416797979)
(2.70881077 0.0310837914 0.262640792)
(2.32350563 0.0337164185 0.146760095)
(2.09410186 0.034070375 0.0746071916)
(1.95088425 0.0323443389 0.0355214426)
(1.86041967 0.028743818 0.016665679)
(1.8047466 0.0234810605 0.00834581002)
(1.77008071 0.0167865958 0.00503889153)
(1.74744612 0.0089080925 0.00392810669)
(1.73196324 9.57690628e-05 0.00364072715)
(1.72104524 -0.00941352884 0.00357476684)
(1.71331289 -0.0194075214 0.00350536171)
(1.70811077 -0.0297021145 0.00336275265)
(1.70522936 -0.0401344655 0.00313383312)
(1.70471551 -0.0505457025 0.00282606508)
(1.70674417 -0.0607565285 0.00245480391)
(1.7115278 -0.0705402943 0.00203873012)
(1.71924656 -0.0795979733 0.00159793699)
(1.7299916 -0.087539588 0.00115256965)
(1.74371711 -0.0938769548 0.000721511321)
(1.76019815 -0.0980331029 0.000321319179)
(1.7789935 -0.0993741157 -3.45310052e-05)
(1.79941868 -0.0972684705 -0.000335958111)
(1.82053605 -0.0911751326 -0.000576379725)
(1.84118377 -0.0807549653 -0.000751789839)
(1.86004628 -0.0659881073 -0.000860696234)
(4.39501541 0.00561146985 0.34128906)
(3.85946966 0.0143453289 0.526729191)
(3.27824899 0.0205253965 0.416987107)
(2.70565652 0.024430932 0.262819292)
(2.31891356 0.026250359 0.14691366)
(2.08810287 0.0261040813 0.0747456207)
(1.94354157 0.024117541 0.0356542238)
(1.85182402 0.0204264801 0.0167955333)
(1.79500298 0.0151766188 0.00847221411)
(1.75929808 0.0085341674 0.00516080607)
(1.73573497 0.000684109615 0.00404436165)
(1.71943545 -0.00818333155 0.00375053576)
(1.70781685 -0.0178861609 0.0036780391)
(1.69951004 -0.0282598442 0.00360188395)
(1.69387802 -0.0391587488 0.00345197139)
(1.69074219 -0.0504469596 0.0032148776)
(1.69019574 -0.0619787543 0.00289762905)
(1.69247706 -0.0735713854 0.00251491571)
(1.69787913 -0.0849737609 0.00208462309)
(1.70667703 -0.0958351692 0.00162606137)
(1.71906435 -0.10567872 0.00115873978)
(1.73509316 -0.113885614 0.000701195628)
(1.75461262 -0.119697979 0.000270121147)
(1.77720541 -0.122250154 -0.000120191214)
(1.80212766 -0.120639025 -0.000458145537)
(1.82826823 -0.114042039 -0.000734414357)
(1.85415334 -0.101879932 -0.000940731226)
(1.87802437 -0.084007525 -0.00107064161)
(4.39491375 0.00436750575 0.341330996)
(3.85884475 0.0111455014 0.526852661)
(3.27669719 0.0158705274 0.417150258)
(2.70290616 0.0187194866 0.26297379)
(2.31488123 0.0197996877 0.147047393)
(2.08278628 0.0191680141 0.0748670136)
(1.93696217 0.016892891 0.0357711855)
(1.84402634 0.0130552144 0.0169100566)
(1.78604515 0.00774579741 0.0085835731)
(1.74924349 0.00107407531 0.00526786969)
(1.72465078 -0.00683389712 0.00414635491)
(1.70739348 -0.0158469161 0.00384755182)
(1.69489603 -0.0258407175 0.00377014803)
(1.68580147 -0.0367055694 0.00368882848)
(1.67949486 -0.0483452818 0.00353323467)
(1.67583436 -0.0606655727 0.00328948978)
(1.67496886 -0.0735517415 0.00296392034)
(1.67721537 -0.0868372129 0.00257035332)
(1.68297089 -0.100265639 0.00212573005)
(1.69263955 -0.113449795 0.00164844407)
(1.70656399 -0.125831754 0.00115718014)
(1.72495266 -0.136651332 0.000669880385)
(1.74779499 -0.144933138 0.000203097151)
(1.77476083 -0.149507941 -0.000228221651)
(1.80508775 -0.14908777 -0.000610855992)
(1.83748406 -0.142418283 -0.000931884714)
(1.87007686 -0.128513895 -0.00117675789)
(1.9004787 -0.106970915 -0.00133098346)
(4.39482442 0.00331374394 0.341368053)
(3.85829414 0.00843380613 0.52696122)
(3.27532496 0.0119188812 0.417293467)
(2.70046296 0.0138558895 0.263109585)
(2.31127643 0.0142837655 0.147165345)
(2.07799308 0.0132078617 0.0749745675)
(1.93096967 0.0106513793 0.0358751635)
(1.83684157 0.00665120141 0.0170118871)
(1.77768538 0.00125159855 0.0086822264)
(1.73972945 -0.0054892538 0.00536248196)
(1.71400676 -0.0135004571 0.0042371937)
(1.69564784 -0.0227092341 0.00393486392)
(1.68208258 -0.0330526021 0.0038538211)
(1.67196517 -0.0444832471 0.00376869271)
(1.66470308 -0.056966675 0.003608786)
(1.66019356 -0.0704677049 0.00335956689)
(1.6586479 -0.08492537 0.00302646554)
(1.66047564 -0.100216647 0.00262227017)
(1.66620276 -0.11611018 0.00216281811)
(1.67640294 -0.13221165 0.00166535354)
(1.69162827 -0.147904075 0.00114741714)
(1.71232638 -0.162289735 0.000625959886)
(1.73872957 -0.174146162 0.000116984339)
(1.77070547 -0.181918942 -0.000364141385)
(1.80756474 -0.1837843 -0.000802188719)
(1.84786527 -0.177830687 -0.00117913439)
(1.88924071 -0.162386922 -0.00147066849)
(1.92840584 -0.136535142 -0.00164927225)
(4.39474493 0.00242979837 0.341401471)
(3.85780216 0.00615905612 0.527058264)
(3.27409352 0.00860158099 0.417420993)
(2.69826074 0.00976751746 0.263230469)
(2.30800847 0.00963927487 0.147270461)
(2.07361402 0.00818069587 0.0750706277)
(1.92544298 0.00537896504 0.0359681249)
(1.83014274 0.00123478063 0.0171025675)
(1.76979513 -0.00424806307 0.00876970073)
(1.73062915 -0.01105704 0.00544706229)
(1.70367785 -0.0191729649 0.00431931428)
(1.68407089 -0.0285816121 0.0040143865)
(1.66923848 -0.0392847047 0.0039307157)
(1.65784108 -0.0513050009 0.00384286997)
(1.64930375 -0.0646830115 0.00367967869)
(1.64355974 -0.0794629127 0.00342576318)
(1.64088364 -0.0956658166 0.00308548059)
(1.6417864 -0.113249307 0.00267038926)
(1.64694541 -0.132052237 0.00219495611)
(1.65714742 -0.151723697 0.00167491008)
(1.67322735 -0.171636292 0.00112617129)
(1.69598341 -0.190787604 0.00056415859)
(1.72604351 -0.207701947 3.80493704e-06)
(1.76365752 -0.220361541 -0.000539403518)
(1.80839479 -0.226219144 -0.00104705488)
(1.85877949 -0.222377795 -0.00149299275)
(1.91188422 -0.206016739 -0.00183581298)
(1.96315179 -0.175213605 -0.00202532823)
(4.39467362 0.0016994711 0.341432065)
(3.85735848 0.00428044328 0.527146057)
(3.2729775 0.00586339426 0.4175357)
(2.69625645 0.00639547711 0.263339005)
(2.30501875 0.00581400897 0.147364738)
(2.0695795 0.00405051024 0.075156704)
(1.92030625 0.0010634965 0.0360510106)
(1.82385195 -0.00317706304 0.0171829093)
(1.76229958 -0.00870116772 0.00884790119)
(1.72187375 -0.0155364048 0.00552362056)
(1.69360041 -0.0237126883 0.00439406409)
(1.67260061 -0.0332737201 0.00408719995)
(1.65629644 -0.044288145 0.00400166024)
(1.64334456 -0.0568556276 0.00391185666)
(1.63317633 -0.0711050471 0.00374597227)
(1.62574972 -0.0871820684 0.00348761596)
(1.62139396 -0.105223359 0.00313985491)
(1.62071976 -0.125314629 0.00271270571)
(1.62456885 -0.147428555 0.00221882067)
(1.63398006 -0.17133709 0.00167181208)
(1.65015168 -0.196492148 0.00108525058)
(1.67437271 -0.221871149 0.000472315292)
(1.70788279 -0.245792939 -0.000153529906)
(1.75160802 -0.265733657 -0.000776488437)
(1.80572446 -0.278216596 -0.00137249439)
(1.86902181 -0.27889895 -0.00190244517)
(1.93806445 -0.263051276 -0.00229500939)
(2.00656862 -0.226824094 -0.00246198792)
(4.39460945 0.0011091308 0.341460317)
(3.85695687 0.00276353821 0.527225992)
(3.27196183 0.00365731032 0.417639373)
(2.69442499 0.0036887787 0.26343679)
(2.30227422 0.00276153685 0.147449369)
(2.06585204 0.000783491113 0.0752333536)
(1.91552074 -0.00231029655 0.036124057)
(1.81793481 -0.00657396127 0.0172544608)
(1.75517381 -0.0120642046 0.00891857246)
(1.71344973 -0.0188444067 0.00559312573)
(1.68377271 -0.0269898178 0.00446214415)
(1.66124564 -0.036599322 0.00415379787)
(1.64327008 -0.0478084676 0.00406684963)
(1.62848319 -0.0607982863 0.00397542193)
(1.61630357 -0.0757973391 0.00380689852)
(1.60669193 -0.0930742298 0.00354364677)
(1.600009 -0.112917264 0.00318708301)
(1.59694562 -0.135596665 0.0027451275)
(1.59850064 -0.161302008 0.00222780004)
(1.60598536 -0.190043278 0.00164548214)
(1.62103371 -0.22149974 0.00100806486)
(1.6455843 -0.254798539 0.000325285459)
(1.68177477 -0.28820963 -0.000390774868)
(1.73165688 -0.318771015 -0.00112051711)
(1.79662642 -0.341922338 -0.00182562844)
(1.87640948 -0.351282876 -0.00244114564)
(1.96744357 -0.338964409 -0.00284155229)
(2.06135144 -0.297383307 -0.00290971609)
(4.39455188 0.000646453943 0.341486457)
(3.85659419 0.00157722693 0.52729879)
(3.27103945 0.00194033642 0.417732964)
(2.69275542 0.00159971273 0.263524615)
(2.29976213 0.000436341978 0.14752467)
(2.06241927 -0.00165783204 0.0753004651)
(1.91107953 -0.00476515629 0.0361885456)
(1.8123962 -0.0089557073 0.0173188409)
(1.74843798 -0.0143078361 0.00898243493)
(1.70539584 -0.0209152339 0.00565602516)
(1.67425544 -0.0288921421 0.00452384731)
(1.65008981 -0.0383870688 0.004214232)
(1.63026418 -0.0495987346 0.00412598403)
(1.61337522 -0.0627892698 0.0040328054)
(1.59880133 -0.0782927812 0.00386106365)
(1.58647097 -0.0965170738 0.00359151224)
(1.57673419 -0.117935175 0.00322329564)
(1.57031546 -0.143061014 0.00276122679)
(1.56832804 -0.172398892 0.00221112372)
(1.57233433 -0.206348514 0.00157787676)
(1.58443686 -0.245036748 0.000864773817)
(1.60736605 -0.288034527 7.49632241e-05)
(1.6444911 -0.333910301 -0.000782252742)
(1.69962949 -0.379594296 -0.00167792789)
(1.77643483 -0.419560159 -0.00254078992)
(1.87700298 -0.444890473 -0.00323693643)
(1.9989365 -0.442778439 -0.00348481949)
(2.13218814 -0.398228803 -0.00317332244)
(4.39450082 0.000299309005 0.341510592)
(3.85626995 0.000691196947 0.527364726)
(3.27020967 0.000670453931 0.41781677)
(2.69124784 7.96001957e-05 0.263602459)
(2.29748471 -0.00121133348 0.147590468)
(2.05928973 -0.00331885701 0.0753590583)
(1.90700374 -0.00633437318 0.0362460697)
(1.80727409 -0.0103381325 0.0173765826)
(1.74215155 -0.0154244998 0.00903974809)
(1.69779949 -0.021709386 0.00571245663)
(1.66517022 -0.02933713 0.00457913394)
(1.6392942 -0.0384965628 0.00426822255)
(1.61748259 -0.0494403609 0.00417846665)
(1.59826659 -0.0625038906 0.00408296231)
(1.58094934 -0.0781228175 0.00390673297)
(1.56537885 -0.0968485338 0.003628336)
(1.55183012 -0.119359216 0.00324360912)
(1.54097942 -0.146461603 0.00275247036)
(1.53395862 -0.179072369 0.00215360331)
(1.53248615 -0.218156179 0.00144189429)
(1.53907467 -0.264578301 0.000607579325)
(1.55729725 -0.318798427 -0.000360633663)
(1.59204843 -0.380303408 -0.00146404068)
(1.64967468 -0.446683848 -0.00267361235)
(1.73765474 -0.512144181 -0.0038965269)
(1.86320149 -0.56530828 -0.00492948066)
(2.02891367 -0.587029099 -0.00518893099)
(2.22754714 -0.548182732 -0.00458619082)
(4.39445674 5.56249956e-05 0.341533059)
(3.85598642 7.45680181e-05 0.527424081)
(3.26947666 -0.000196934575 0.417890503)
(2.68990956 -0.000924798828 0.263670274)
(2.29545623 -0.00223850058 0.147647499)
(2.05648961 -0.00425476629 0.0754105872)
(1.90333591 -0.00706681441 0.036297022)
(1.80263217 -0.0107597729 0.0174277546)
(1.7364069 -0.0154361236 0.00909047202)
(1.69079063 -0.0212241552 0.00576226585)
(1.65669433 -0.0282866608 0.00462772077)
(1.62909416 -0.0368389503 0.00431532908)
(1.60522984 -0.0471714702 0.00422362859)
(1.58354096 -0.0596746772 0.00412486141)
(1.56321612 -0.0748671092 0.00394226474)
(1.54396449 -0.0934278405 0.00365136305)
(1.52590075 -0.116234107 0.00324308565)
(1.5095319 -0.144403056 0.0027094862)
(1.49584447 -0.179330899 0.00203685036)
(1.48650777 -0.222709525 0.0012011771)
(1.48422497 -0.276473813 0.000165911538)
(1.49325974 -0.34257657 -0.00111238039)
(1.52014576 -0.422445511 -0.00266686455)
(1.57449411 -0.515818675 -0.00450259665)
(1.66969057 -0.618372543 -0.00660053328)
(1.82222534 -0.71736826 -0.00887676975)
(2.04858131 -0.786135137 -0.0108585799)
(2.35840407 -0.765043572 -0.0124576321)
(4.39442015 -9.64675298e-05 0.341553708)
(3.855746 -0.00030536775 0.527476377)
(3.26884666 -0.00071119129 0.417953938)
(2.68875395 -0.00147266201 0.263728393)
(2.29370037 -0.00271059787 0.147696602)
(2.05405643 -0.00453422187 0.0754552389)
(1.90013234 -0.00703198363 0.0363412511)
(1.79855252 -0.0102870391 0.0174721084)
(1.73132085 -0.0144012827 0.00913430422)
(1.68453188 -0.0195041882 0.00580510944)
(1.64904999 -0.0257626614 0.00466923293)
(1.61978855 -0.03340006 0.00435512553)
(1.59390209 -0.0427209374 0.00426095312)
(1.56971606 -0.0541408148 0.004157832)
(1.54626761 -0.0682238171 0.00396670936)
(1.52306691 -0.0857321999 0.00365903486)
(1.49997163 -0.107693293 0.00321866377)
(1.47716659 -0.135490502 0.00262537997)
(1.45525703 -0.170984093 0.00184428285)
(1.43551394 -0.216660744 0.000815331728)
(1.42035078 -0.275789434 -0.000556043719)
(1.41416098 -0.352503532 -0.00239774093)
(1.4247022 -0.451722344 -0.00487005969)
(1.46525182 -0.578338155 -0.00817329527)
(1.55776239 -0.734630054 -0.0126930051)
(1.7343347 -0.913379669 -0.0188507568)
(2.04377792 -1.08098626 -0.0271353052)
(2.52391383 -1.09964058 -0.0291040073)