/*--------------------------------*- C++ -*----------------------------------*\
| =========                 |                                                 |
| \\      /  F ield         | foam-extend: Open Source CFD                    |
|  \\    /   O peration     | Version:     4.1                                |
|   \\  /    A nd           | Web:         http://www.foam-extend.org         |
|    \\/     M anipulation  |                                                 |
\*---------------------------------------------------------------------------*/
FoamFile
{
    version     2.0;
    format      ascii;
    class       volScalarField::DimensionedInternalField;
    location    "0.1";
    object      V0;
}
// * * * * * * * * * * * * * * * * * * * * * * * * * * * * * * * * * * * * * //

dimensions      [0 3 0 0 0 0 0];

value           nonuniform List<scalar> 
35840
(
1.00000003e-06
1.00000008e-06
1.00000013e-06
1.00000019e-06
1.00000025e-06
1.00000033e-06
1.00000041e-06
1.00000051e-06
1.00000063e-06
1.00000076e-06
1.00000092e-06
1.00000109e-06
1.00000129e-06
1.00000152e-06
1.00000177e-06
1.00000205e-06
1.00000236e-06
1.00000268e-06
1.00000303e-06
1.00000339e-06
1.00000376e-06
1.00000413e-06
1.00000449e-06
1.00000484e-06
1.00000515e-06
1.00000544e-06
1.00000567e-06
1.00000586e-06
1.00000003e-06
1.00000008e-06
1.00000013e-06
1.00000019e-06
1.00000026e-06
1.00000034e-06
1.00000042e-06
1.00000052e-06
1.00000064e-06
1.00000078e-06
1.00000094e-06
1.00000112e-06
1.00000133e-06
1.00000157e-06
1.00000183e-06
1.00000212e-06
1.00000244e-06
1.00000279e-06
1.00000315e-06
1.00000353e-06
1.00000392e-06
1.00000431e-06
1.00000469e-06
1.00000506e-06
1.0000054e-06
1.0000057e-06
1.00000595e-06
1.00000615e-06
1.00000003e-06
1.00000008e-06
1.00000014e-06
1.00000021e-06
1.00000028e-06
1.00000036e-06
1.00000045e-06
1.00000056e-06
1.00000069e-06
1.00000084e-06
1.00000101e-06
1.00000121e-06
1.00000144e-06
1.0000017e-06
1.000002e-06
1.00000232e-06
1.00000268e-06
1.00000307e-06
1.00000348e-06
1.00000392e-06
1.00000436e-06
1.00000481e-06
1.00000525e-06
1.00000567e-06
1.00000606e-06
1.00000641e-06
1.00000671e-06
1.00000694e-06
1.00000003e-06
1.00000009e-06
1.00000016e-06
1.00000023e-06
1.0000003e-06
1.00000039e-06
1.0000005e-06
1.00000062e-06
1.00000077e-06
1.00000094e-06
1.00000114e-06
1.00000137e-06
1.00000164e-06
1.00000195e-06
1.0000023e-06
1.00000269e-06
1.00000312e-06
1.00000358e-06
1.00000408e-06
1.00000461e-06
1.00000516e-06
1.00000571e-06
1.00000626e-06
1.00000678e-06
1.00000727e-06
1.00000771e-06
1.00000808e-06
1.00000837e-06
1.00000003e-06
1.0000001e-06
1.00000018e-06
1.00000026e-06
1.00000035e-06
1.00000045e-06
1.00000057e-06
1.00000072e-06
1.00000089e-06
1.00000109e-06
1.00000133e-06
1.00000161e-06
1.00000194e-06
1.00000231e-06
1.00000274e-06
1.00000322e-06
1.00000376e-06
1.00000435e-06
1.00000498e-06
1.00000565e-06
1.00000635e-06
1.00000706e-06
1.00000777e-06
1.00000845e-06
1.00000909e-06
1.00000966e-06
1.00001015e-06
1.00001053e-06
1.00000004e-06
1.00000012e-06
1.0000002e-06
1.00000029e-06
1.0000004e-06
1.00000052e-06
1.00000067e-06
1.00000084e-06
1.00000104e-06
1.00000129e-06
1.00000158e-06
1.00000193e-06
1.00000234e-06
1.0000028e-06
1.00000334e-06
1.00000395e-06
1.00000464e-06
1.00000539e-06
1.00000621e-06
1.00000709e-06
1.000008e-06
1.00000894e-06
1.00000988e-06
1.00001079e-06
1.00001164e-06
1.00001241e-06
1.00001306e-06
1.00001358e-06
1.00000005e-06
1.00000014e-06
1.00000024e-06
1.00000034e-06
1.00000047e-06
1.00000061e-06
1.00000078e-06
1.00000099e-06
1.00000124e-06
1.00000155e-06
1.00000191e-06
1.00000234e-06
1.00000284e-06
1.00000344e-06
1.00000412e-06
1.00000491e-06
1.00000579e-06
1.00000677e-06
1.00000784e-06
1.00000899e-06
1.00001021e-06
1.00001146e-06
1.00001272e-06
1.00001394e-06
1.0000151e-06
1.00001614e-06
1.00001703e-06
1.00001773e-06
1.00000005e-06
1.00000016e-06
1.00000028e-06
1.0000004e-06
1.00000055e-06
1.00000072e-06
1.00000093e-06
1.00000118e-06
1.00000149e-06
1.00000186e-06
1.00000231e-06
1.00000284e-06
1.00000348e-06
1.00000423e-06
1.00000511e-06
1.00000611e-06
1.00000726e-06
1.00000854e-06
1.00000995e-06
1.00001147e-06
1.00001309e-06
1.00001476e-06
1.00001646e-06
1.00001812e-06
1.00001969e-06
1.00002112e-06
1.00002234e-06
1.0000233e-06
1.00000006e-06
1.00000019e-06
1.00000032e-06
1.00000047e-06
1.00000064e-06
1.00000085e-06
1.0000011e-06
1.0000014e-06
1.00000178e-06
1.00000223e-06
1.00000279e-06
1.00000346e-06
1.00000426e-06
1.00000521e-06
1.00000633e-06
1.00000762e-06
1.0000091e-06
1.00001077e-06
1.00001262e-06
1.00001464e-06
1.0000168e-06
1.00001905e-06
1.00002133e-06
1.00002359e-06
1.00002573e-06
1.00002768e-06
1.00002936e-06
1.00003069e-06
1.00000007e-06
1.00000022e-06
1.00000037e-06
1.00000055e-06
1.00000075e-06
1.00000099e-06
1.00000129e-06
1.00000166e-06
1.00000211e-06
1.00000267e-06
1.00000336e-06
1.00000419e-06
1.00000519e-06
1.00000639e-06
1.00000781e-06
1.00000947e-06
1.00001138e-06
1.00001356e-06
1.00001599e-06
1.00001866e-06
1.00002153e-06
1.00002454e-06
1.00002763e-06
1.00003069e-06
1.00003362e-06
1.00003629e-06
1.0000386e-06
1.00004043e-06
1.00000008e-06
1.00000025e-06
1.00000043e-06
1.00000063e-06
1.00000087e-06
1.00000116e-06
1.00000151e-06
1.00000196e-06
1.0000025e-06
1.00000318e-06
1.00000402e-06
1.00000505e-06
1.0000063e-06
1.00000781e-06
1.0000096e-06
1.00001172e-06
1.00001418e-06
1.00001699e-06
1.00002017e-06
1.00002369e-06
1.0000275e-06
1.00003153e-06
1.00003569e-06
1.00003984e-06
1.00004384e-06
1.0000475e-06
1.00005068e-06
1.00005321e-06
1.00000009e-06
1.00000029e-06
1.00000049e-06
1.00000073e-06
1.000001e-06
1.00000134e-06
1.00000176e-06
1.00000229e-06
1.00000295e-06
1.00000377e-06
1.00000479e-06
1.00000605e-06
1.0000076e-06
1.00000947e-06
1.00001173e-06
1.00001441e-06
1.00001755e-06
1.00002118e-06
1.00002531e-06
1.00002993e-06
1.00003497e-06
1.00004035e-06
1.00004595e-06
1.00005157e-06
1.00005701e-06
1.00006203e-06
1.0000664e-06
1.00006989e-06
1.00000011e-06
1.00000033e-06
1.00000056e-06
1.00000083e-06
1.00000115e-06
1.00000154e-06
1.00000203e-06
1.00000265e-06
1.00000344e-06
1.00000442e-06
1.00000565e-06
1.00000719e-06
1.00000908e-06
1.0000114e-06
1.00001421e-06
1.00001758e-06
1.00002157e-06
1.00002623e-06
1.00003157e-06
1.00003759e-06
1.00004424e-06
1.00005139e-06
1.00005888e-06
1.00006648e-06
1.00007388e-06
1.00008076e-06
1.00008677e-06
1.00009159e-06
1.00000012e-06
1.00000037e-06
1.00000063e-06
1.00000093e-06
1.0000013e-06
1.00000175e-06
1.00000232e-06
1.00000304e-06
1.00000396e-06
1.00000513e-06
1.00000661e-06
1.00000846e-06
1.00001076e-06
1.0000136e-06
1.00001708e-06
1.00002128e-06
1.00002631e-06
1.00003223e-06
1.00003909e-06
1.0000469e-06
1.0000556e-06
1.00006506e-06
1.00007507e-06
1.0000853e-06
1.00009535e-06
1.00010475e-06
1.00011301e-06
1.00011966e-06
1.00000013e-06
1.00000041e-06
1.0000007e-06
1.00000104e-06
1.00000145e-06
1.00000196e-06
1.00000262e-06
1.00000346e-06
1.00000453e-06
1.0000059e-06
1.00000764e-06
1.00000984e-06
1.00001261e-06
1.00001606e-06
1.00002031e-06
1.00002551e-06
1.00003178e-06
1.00003924e-06
1.00004798e-06
1.00005803e-06
1.00006936e-06
1.00008181e-06
1.00009511e-06
1.00010884e-06
1.00012246e-06
1.0001353e-06
1.00014665e-06
1.00015583e-06
1.00000015e-06
1.00000045e-06
1.00000077e-06
1.00000114e-06
1.0000016e-06
1.00000218e-06
1.00000292e-06
1.00000388e-06
1.00000511e-06
1.00000669e-06
1.00000872e-06
1.00001132e-06
1.0000146e-06
1.00001874e-06
1.00002389e-06
1.00003024e-06
1.00003798e-06
1.00004729e-06
1.00005832e-06
1.00007115e-06
1.00008578e-06
1.00010205e-06
1.00011963e-06
1.000138e-06
1.0001564e-06
1.00017391e-06
1.0001895e-06
1.00020217e-06
1.00000016e-06
1.00000048e-06
1.00000083e-06
1.00000125e-06
1.00000175e-06
1.00000239e-06
1.00000322e-06
1.00000429e-06
1.00000568e-06
1.00000749e-06
1.00000983e-06
1.00001284e-06
1.00001669e-06
1.00002158e-06
1.00002775e-06
1.00003542e-06
1.00004486e-06
1.00005634e-06
1.0000701e-06
1.00008631e-06
1.00010503e-06
1.00012613e-06
1.00014923e-06
1.00017367e-06
1.00019846e-06
1.0002223e-06
1.00024372e-06
1.00026124e-06
1.00000017e-06
1.00000052e-06
1.00000089e-06
1.00000134e-06
1.00000188e-06
1.00000258e-06
1.00000349e-06
1.00000468e-06
1.00000624e-06
1.00000827e-06
1.00001092e-06
1.00001436e-06
1.00001881e-06
1.00002451e-06
1.00003175e-06
1.00004086e-06
1.00005224e-06
1.00006623e-06
1.00008318e-06
1.00010342e-06
1.00012712e-06
1.00015422e-06
1.00018434e-06
1.00021668e-06
1.00024997e-06
1.00028242e-06
1.00031189e-06
1.00033619e-06
1.00000018e-06
1.00000054e-06
1.00000094e-06
1.00000141e-06
1.000002e-06
1.00000275e-06
1.00000373e-06
1.00000503e-06
1.00000673e-06
1.00000898e-06
1.00001194e-06
1.0000158e-06
1.00002084e-06
1.00002736e-06
1.00003572e-06
1.00004638e-06
1.00005983e-06
1.00007659e-06
1.00009719e-06
1.00012215e-06
1.00015179e-06
1.00018623e-06
1.00022514e-06
1.00026766e-06
1.00031221e-06
1.00035638e-06
1.00039709e-06
1.000431e-06
1.00000018e-06
1.00000056e-06
1.00000097e-06
1.00000146e-06
1.00000208e-06
1.00000287e-06
1.00000391e-06
1.0000053e-06
1.00000713e-06
1.00000957e-06
1.0000128e-06
1.00001706e-06
1.00002266e-06
1.00002997e-06
1.00003946e-06
1.00005169e-06
1.00006729e-06
1.00008699e-06
1.0001116e-06
1.00014188e-06
1.00017842e-06
1.0002216e-06
1.00027132e-06
1.00032681e-06
1.00038625e-06
1.00044651e-06
1.00050318e-06
1.00055108e-06
1.00000019e-06
1.00000057e-06
1.00000099e-06
1.00000149e-06
1.00000212e-06
1.00000294e-06
1.00000403e-06
1.00000547e-06
1.00000741e-06
1.00001e-06
1.00001345e-06
1.00001804e-06
1.00002413e-06
1.00003215e-06
1.00004268e-06
1.00005639e-06
1.00007412e-06
1.00009684e-06
1.00012561e-06
1.00016157e-06
1.00020586e-06
1.00025918e-06
1.00032188e-06
1.00039366e-06
1.00047278e-06
1.00055544e-06
1.00063544e-06
1.00070457e-06
1.00000018e-06
1.00000056e-06
1.00000098e-06
1.00000148e-06
1.00000211e-06
1.00000294e-06
1.00000405e-06
1.00000553e-06
1.00000752e-06
1.00001019e-06
1.00001379e-06
1.00001862e-06
1.00002507e-06
1.00003365e-06
1.00004503e-06
1.00006003e-06
1.00007966e-06
1.00010517e-06
1.00013798e-06
1.0001797e-06
1.00023202e-06
1.00029654e-06
1.00037462e-06
1.00046676e-06
1.00057195e-06
1.00068641e-06
1.00080197e-06
1.00090536e-06
1.00000018e-06
1.00000054e-06
1.00000095e-06
1.00000144e-06
1.00000206e-06
1.00000287e-06
1.00000396e-06
1.00000543e-06
1.00000742e-06
1.00001012e-06
1.00001376e-06
1.00001868e-06
1.00002532e-06
1.00003422e-06
1.00004615e-06
1.00006204e-06
1.0000831e-06
1.00011084e-06
1.00014712e-06
1.00019407e-06
1.00025422e-06
1.00033052e-06
1.00042606e-06
1.00054322e-06
1.0006831e-06
1.00084388e-06
1.00101652e-06
1.00117962e-06
1.00000017e-06
1.00000051e-06
1.00000089e-06
1.00000135e-06
1.00000194e-06
1.00000272e-06
1.00000377e-06
1.00000518e-06
1.00000711e-06
1.00000973e-06
1.00001329e-06
1.00001814e-06
1.00002473e-06
1.00003364e-06
1.00004568e-06
1.00006189e-06
1.00008364e-06
1.00011269e-06
1.0001513e-06
1.0002023e-06
1.00026936e-06
1.00035704e-06
1.00047089e-06
1.00061764e-06
1.000804e-06
1.00103418e-06
1.00130323e-06
1.00157878e-06
1.00000015e-06
1.00000046e-06
1.00000081e-06
1.00000123e-06
1.00000177e-06
1.00000248e-06
1.00000345e-06
1.00000476e-06
1.00000655e-06
1.000009e-06
1.00001235e-06
1.00001693e-06
1.00002319e-06
1.00003173e-06
1.00004336e-06
1.00005916e-06
1.0000806e-06
1.00010961e-06
1.00014882e-06
1.00020173e-06
1.00027319e-06
1.00036988e-06
1.00050117e-06
1.00068068e-06
1.00092785e-06
1.00126414e-06
1.00170152e-06
1.00219919e-06
1.00000013e-06
1.0000004e-06
1.0000007e-06
1.00000107e-06
1.00000154e-06
1.00000216e-06
1.00000301e-06
1.00000417e-06
1.00000575e-06
1.00000793e-06
1.00001092e-06
1.00001503e-06
1.00002067e-06
1.00002841e-06
1.00003903e-06
1.00005357e-06
1.00007348e-06
1.00010075e-06
1.00013815e-06
1.00018965e-06
1.00026111e-06
1.00036156e-06
1.00050554e-06
1.00071701e-06
1.00103631e-06
1.00152835e-06
1.00225816e-06
1.00318143e-06
1.00000011e-06
1.00000033e-06
1.00000057e-06
1.00000087e-06
1.00000126e-06
1.00000177e-06
1.00000247e-06
1.00000342e-06
1.00000473e-06
1.00000654e-06
1.00000903e-06
1.00001247e-06
1.0000172e-06
1.00002373e-06
1.00003273e-06
1.00004513e-06
1.00006222e-06
1.00008584e-06
1.00011863e-06
1.00016451e-06
1.00022972e-06
1.00032483e-06
1.00046907e-06
1.00069929e-06
1.00108642e-06
1.00176155e-06
1.00296073e-06
1.00452006e-06
1.00000008e-06
1.00000024e-06
1.00000042e-06
1.00000064e-06
1.00000093e-06
1.00000131e-06
1.00000183e-06
1.00000254e-06
1.00000353e-06
1.00000488e-06
1.00000675e-06
1.00000934e-06
1.00001292e-06
1.00001786e-06
1.0000247e-06
1.00003415e-06
1.00004725e-06
1.00006544e-06
1.00009086e-06
1.00012679e-06
1.00017861e-06
1.00025604e-06
1.00037831e-06
1.00058673e-06
1.00097283e-06
1.00171864e-06
1.00300206e-06
1.00672563e-06
1.00000007e-06
1.00000022e-06
1.00000038e-06
1.00000055e-06
1.00000074e-06
1.00000095e-06
1.0000012e-06
1.00000149e-06
1.00000182e-06
1.00000221e-06
1.00000266e-06
1.00000317e-06
1.00000375e-06
1.00000441e-06
1.00000515e-06
1.00000596e-06
1.00000684e-06
1.00000779e-06
1.0000088e-06
1.00000984e-06
1.00001091e-06
1.00001199e-06
1.00001303e-06
1.00001403e-06
1.00001496e-06
1.00001578e-06
1.00001647e-06
1.000017e-06
1.00000008e-06
1.00000023e-06
1.00000039e-06
1.00000056e-06
1.00000075e-06
1.00000097e-06
1.00000123e-06
1.00000152e-06
1.00000187e-06
1.00000227e-06
1.00000273e-06
1.00000326e-06
1.00000387e-06
1.00000455e-06
1.00000532e-06
1.00000616e-06
1.00000709e-06
1.00000809e-06
1.00000914e-06
1.00001025e-06
1.00001137e-06
1.00001251e-06
1.00001362e-06
1.00001468e-06
1.00001566e-06
1.00001653e-06
1.00001727e-06
1.00001784e-06
1.00000008e-06
1.00000024e-06
1.00000041e-06
1.00000059e-06
1.0000008e-06
1.00000103e-06
1.00000131e-06
1.00000162e-06
1.000002e-06
1.00000243e-06
1.00000294e-06
1.00000352e-06
1.00000419e-06
1.00000495e-06
1.0000058e-06
1.00000675e-06
1.00000779e-06
1.00000891e-06
1.00001011e-06
1.00001136e-06
1.00001265e-06
1.00001396e-06
1.00001524e-06
1.00001646e-06
1.0000176e-06
1.00001861e-06
1.00001947e-06
1.00002014e-06
1.00000009e-06
1.00000027e-06
1.00000045e-06
1.00000066e-06
1.00000088e-06
1.00000114e-06
1.00000145e-06
1.00000181e-06
1.00000223e-06
1.00000273e-06
1.00000331e-06
1.00000399e-06
1.00000477e-06
1.00000566e-06
1.00000667e-06
1.0000078e-06
1.00000905e-06
1.0000104e-06
1.00001185e-06
1.00001339e-06
1.00001497e-06
1.00001657e-06
1.00001816e-06
1.00001969e-06
1.0000211e-06
1.00002237e-06
1.00002345e-06
1.00002429e-06
1.0000001e-06
1.0000003e-06
1.00000051e-06
1.00000074e-06
1.000001e-06
1.0000013e-06
1.00000166e-06
1.00000208e-06
1.00000258e-06
1.00000317e-06
1.00000386e-06
1.00000468e-06
1.00000563e-06
1.00000672e-06
1.00000796e-06
1.00000936e-06
1.00001091e-06
1.00001262e-06
1.00001445e-06
1.0000164e-06
1.00001843e-06
1.0000205e-06
1.00002255e-06
1.00002453e-06
1.00002638e-06
1.00002805e-06
1.00002946e-06
1.00003056e-06
1.00000011e-06
1.00000035e-06
1.00000059e-06
1.00000086e-06
1.00000116e-06
1.00000151e-06
1.00000193e-06
1.00000243e-06
1.00000303e-06
1.00000375e-06
1.0000046e-06
1.0000056e-06
1.00000678e-06
1.00000814e-06
1.0000097e-06
1.00001148e-06
1.00001346e-06
1.00001565e-06
1.00001803e-06
1.00002057e-06
1.00002323e-06
1.00002595e-06
1.00002867e-06
1.00003131e-06
1.00003379e-06
1.00003601e-06
1.00003791e-06
1.0000394e-06
1.00000013e-06
1.0000004e-06
1.00000068e-06
1.000001e-06
1.00000135e-06
1.00000177e-06
1.00000228e-06
1.00000288e-06
1.00000361e-06
1.00000449e-06
1.00000553e-06
1.00000678e-06
1.00000826e-06
1.00000998e-06
1.00001196e-06
1.00001424e-06
1.0000168e-06
1.00001964e-06
1.00002276e-06
1.0000261e-06
1.00002963e-06
1.00003326e-06
1.0000369e-06
1.00004046e-06
1.00004381e-06
1.00004684e-06
1.00004942e-06
1.00005146e-06
1.00000015e-06
1.00000047e-06
1.0000008e-06
1.00000116e-06
1.00000159e-06
1.00000209e-06
1.00000269e-06
1.00000342e-06
1.00000431e-06
1.00000539e-06
1.00000669e-06
1.00000825e-06
1.0000101e-06
1.00001228e-06
1.00001482e-06
1.00001774e-06
1.00002106e-06
1.00002477e-06
1.00002886e-06
1.00003329e-06
1.00003798e-06
1.00004285e-06
1.00004776e-06
1.00005258e-06
1.00005714e-06
1.00006128e-06
1.00006482e-06
1.00006762e-06
1.00000018e-06
1.00000054e-06
1.00000093e-06
1.00000136e-06
1.00000186e-06
1.00000246e-06
1.00000318e-06
1.00000407e-06
1.00000515e-06
1.00000648e-06
1.00000809e-06
1.00001003e-06
1.00001236e-06
1.00001512e-06
1.00001836e-06
1.00002211e-06
1.00002641e-06
1.00003126e-06
1.00003663e-06
1.00004249e-06
1.00004875e-06
1.00005528e-06
1.00006191e-06
1.00006845e-06
1.00007468e-06
1.00008034e-06
1.00008521e-06
1.00008907e-06
1.00000021e-06
1.00000063e-06
1.00000108e-06
1.00000158e-06
1.00000217e-06
1.00000288e-06
1.00000375e-06
1.00000482e-06
1.00000614e-06
1.00000776e-06
1.00000974e-06
1.00001216e-06
1.00001507e-06
1.00001856e-06
1.00002267e-06
1.00002748e-06
1.00003303e-06
1.00003934e-06
1.0000464e-06
1.00005414e-06
1.00006247e-06
1.00007122e-06
1.00008018e-06
1.00008906e-06
1.00009755e-06
1.00010532e-06
1.00011201e-06
1.00011733e-06
1.00000024e-06
1.00000073e-06
1.00000125e-06
1.00000183e-06
1.00000252e-06
1.00000336e-06
1.0000044e-06
1.00000568e-06
1.00000727e-06
1.00000924e-06
1.00001168e-06
1.00001466e-06
1.00001829e-06
1.00002266e-06
1.00002787e-06
1.000034e-06
1.00004114e-06
1.00004932e-06
1.00005853e-06
1.00006874e-06
1.0000798e-06
1.00009151e-06
1.00010358e-06
1.00011562e-06
1.00012721e-06
1.00013785e-06
1.00014707e-06
1.00015441e-06
1.00000027e-06
1.00000083e-06
1.00000143e-06
1.00000211e-06
1.00000291e-06
1.0000039e-06
1.00000512e-06
1.00000664e-06
1.00000855e-06
1.00001093e-06
1.0000139e-06
1.00001756e-06
1.00002204e-06
1.00002749e-06
1.00003403e-06
1.00004181e-06
1.00005093e-06
1.00006147e-06
1.00007347e-06
1.00008685e-06
1.00010149e-06
1.00011711e-06
1.00013333e-06
1.00014964e-06
1.00016543e-06
1.00018001e-06
1.00019268e-06
1.00020282e-06
1.00000031e-06
1.00000094e-06
1.00000162e-06
1.0000024e-06
1.00000333e-06
1.00000447e-06
1.00000589e-06
1.0000077e-06
1.00000997e-06
1.00001283e-06
1.0000164e-06
1.00002085e-06
1.00002635e-06
1.00003308e-06
1.00004125e-06
1.00005103e-06
1.00006261e-06
1.00007612e-06
1.00009162e-06
1.0001091e-06
1.00012837e-06
1.00014913e-06
1.00017087e-06
1.0001929e-06
1.00021438e-06
1.00023433e-06
1.00025176e-06
1.00026574e-06
1.00000035e-06
1.00000106e-06
1.00000183e-06
1.0000027e-06
1.00000376e-06
1.00000507e-06
1.00000673e-06
1.00000883e-06
1.00001151e-06
1.0000149e-06
1.00001918e-06
1.00002454e-06
1.00003122e-06
1.00003947e-06
1.00004955e-06
1.00006176e-06
1.00007634e-06
1.00009352e-06
1.00011343e-06
1.00013609e-06
1.00016134e-06
1.00018879e-06
1.00021782e-06
1.0002475e-06
1.00027665e-06
1.00030392e-06
1.00032787e-06
1.00034716e-06
1.00000039e-06
1.00000118e-06
1.00000203e-06
1.00000301e-06
1.00000421e-06
1.0000057e-06
1.0000076e-06
1.00001003e-06
1.00001314e-06
1.00001711e-06
1.00002217e-06
1.00002857e-06
1.0000366e-06
1.0000466e-06
1.00005894e-06
1.00007403e-06
1.00009222e-06
1.00011387e-06
1.00013923e-06
1.0001684e-06
1.00020125e-06
1.00023737e-06
1.00027594e-06
1.00031577e-06
1.00035525e-06
1.00039247e-06
1.00042536e-06
1.00045196e-06
1.00000042e-06
1.00000129e-06
1.00000223e-06
1.00000332e-06
1.00000465e-06
1.00000633e-06
1.00000848e-06
1.00001125e-06
1.00001482e-06
1.00001942e-06
1.00002532e-06
1.00003285e-06
1.00004238e-06
1.00005437e-06
1.00006933e-06
1.00008777e-06
1.00011023e-06
1.00013724e-06
1.00016923e-06
1.00020646e-06
1.00024888e-06
1.00029607e-06
1.00034705e-06
1.00040028e-06
1.00045358e-06
1.00050429e-06
1.00054942e-06
1.00058609e-06
1.00000046e-06
1.0000014e-06
1.00000242e-06
1.00000362e-06
1.00000508e-06
1.00000694e-06
1.00000934e-06
1.00001245e-06
1.0000165e-06
1.00002175e-06
1.00002854e-06
1.00003727e-06
1.00004843e-06
1.00006263e-06
1.00008053e-06
1.0001028e-06
1.00013018e-06
1.00016348e-06
1.0002034e-06
1.00025042e-06
1.0003047e-06
1.00036586e-06
1.00043279e-06
1.00050357e-06
1.0005753e-06
1.00064424e-06
1.00070613e-06
1.00075672e-06
1.00000049e-06
1.00000149e-06
1.00000259e-06
1.00000388e-06
1.00000547e-06
1.0000075e-06
1.00001014e-06
1.00001359e-06
1.0000181e-06
1.000024e-06
1.0000317e-06
1.00004169e-06
1.00005459e-06
1.00007114e-06
1.00009214e-06
1.00011859e-06
1.00015158e-06
1.00019216e-06
1.00024132e-06
1.00030001e-06
1.00036871e-06
1.00044722e-06
1.0005344e-06
1.00062793e-06
1.00072405e-06
1.00081764e-06
1.00090254e-06
1.00097242e-06
1.00000051e-06
1.00000157e-06
1.00000273e-06
1.00000409e-06
1.00000579e-06
1.00000798e-06
1.00001083e-06
1.00001458e-06
1.00001954e-06
1.00002606e-06
1.00003464e-06
1.00004587e-06
1.00006049e-06
1.0000794e-06
1.00010366e-06
1.00013459e-06
1.00017361e-06
1.0002222e-06
1.00028195e-06
1.00035427e-06
1.00044013e-06
1.00053977e-06
1.00065222e-06
1.0007749e-06
1.00090314e-06
1.00103e-06
1.00114661e-06
1.00124348e-06
1.00000053e-06
1.00000162e-06
1.00000282e-06
1.00000425e-06
1.00000603e-06
1.00000833e-06
1.00001136e-06
1.00001537e-06
1.00002071e-06
1.00002778e-06
1.00003715e-06
1.00004952e-06
1.00006576e-06
1.00008697e-06
1.0001145e-06
1.00014998e-06
1.00019522e-06
1.00025234e-06
1.00032369e-06
1.00041137e-06
1.00051709e-06
1.00064181e-06
1.00078513e-06
1.00094463e-06
1.00111486e-06
1.00128669e-06
1.00144748e-06
1.00158273e-06
1.00000054e-06
1.00000165e-06
1.00000287e-06
1.00000432e-06
1.00000615e-06
1.00000853e-06
1.00001168e-06
1.00001588e-06
1.0000215e-06
1.00002901e-06
1.00003902e-06
1.00005235e-06
1.00007001e-06
1.0000933e-06
1.00012384e-06
1.00016361e-06
1.00021503e-06
1.00028089e-06
1.00036419e-06
1.00046825e-06
1.00059615e-06
1.0007498e-06
1.00092983e-06
1.00113495e-06
1.00135963e-06
1.00159252e-06
1.00181589e-06
1.0020072e-06
1.00000053e-06
1.00000163e-06
1.00000285e-06
1.0000043e-06
1.00000614e-06
1.00000854e-06
1.00001174e-06
1.00001604e-06
1.00002181e-06
1.00002958e-06
1.00004002e-06
1.00005403e-06
1.00007274e-06
1.00009765e-06
1.00013066e-06
1.00017415e-06
1.00023107e-06
1.00030498e-06
1.00039991e-06
1.00052043e-06
1.00067118e-06
1.00085637e-06
1.00107924e-06
1.00134018e-06
1.00163487e-06
1.00195117e-06
1.00226535e-06
1.00254188e-06
1.00000052e-06
1.00000158e-06
1.00000276e-06
1.00000417e-06
1.00000597e-06
1.00000834e-06
1.0000115e-06
1.00001577e-06
1.00002154e-06
1.00002936e-06
1.00003994e-06
1.00005422e-06
1.00007346e-06
1.0000993e-06
1.00013389e-06
1.00017996e-06
1.00024099e-06
1.0003213e-06
1.00042614e-06
1.00056153e-06
1.00073425e-06
1.00095207e-06
1.00122239e-06
1.00154963e-06
1.00193336e-06
1.00236415e-06
1.00281383e-06
1.00322651e-06
1.00000048e-06
1.00000148e-06
1.00000259e-06
1.00000393e-06
1.00000564e-06
1.00000789e-06
1.00001093e-06
1.00001504e-06
1.00002062e-06
1.00002823e-06
1.00003858e-06
1.00005265e-06
1.00007175e-06
1.00009761e-06
1.00013253e-06
1.00017952e-06
1.00024251e-06
1.00032653e-06
1.00043793e-06
1.00058458e-06
1.00077628e-06
1.0010247e-06
1.0013428e-06
1.00174443e-06
1.00223974e-06
1.00282806e-06
1.00348382e-06
1.00412377e-06
1.00000044e-06
1.00000134e-06
1.00000235e-06
1.00000357e-06
1.00000514e-06
1.00000721e-06
1.00001e-06
1.00001381e-06
1.00001901e-06
1.00002612e-06
1.00003584e-06
1.00004914e-06
1.0000673e-06
1.00009206e-06
1.00012578e-06
1.00017157e-06
1.00023361e-06
1.00031744e-06
1.00043035e-06
1.00058199e-06
1.00078506e-06
1.00105621e-06
1.00141676e-06
1.00189422e-06
1.00252197e-06
1.00332455e-06
1.00429185e-06
1.00531289e-06
1.00000038e-06
1.00000116e-06
1.00000204e-06
1.0000031e-06
1.00000447e-06
1.00000628e-06
1.00000874e-06
1.0000121e-06
1.0000167e-06
1.00002301e-06
1.00003169e-06
1.00004362e-06
1.00005998e-06
1.00008244e-06
1.00011321e-06
1.00015533e-06
1.00021292e-06
1.00029161e-06
1.0003991e-06
1.00054608e-06
1.0007477e-06
1.0010258e-06
1.00141242e-06
1.00195411e-06
1.00271727e-06
1.00378683e-06
1.00519916e-06
1.00680045e-06
1.00000031e-06
1.00000095e-06
1.00000166e-06
1.00000253e-06
1.00000365e-06
1.00000514e-06
1.00000716e-06
1.00000993e-06
1.00001374e-06
1.00001899e-06
1.00002621e-06
1.00003618e-06
1.00004992e-06
1.00006885e-06
1.00009492e-06
1.00013082e-06
1.00018023e-06
1.00024832e-06
1.00034231e-06
1.00047271e-06
1.00065525e-06
1.00091473e-06
1.00129201e-06
1.00185578e-06
1.00271568e-06
1.00402576e-06
1.00597208e-06
1.00814947e-06
1.00000023e-06
1.0000007e-06
1.00000123e-06
1.00000187e-06
1.0000027e-06
1.00000381e-06
1.00000532e-06
1.00000739e-06
1.00001023e-06
1.00001416e-06
1.0000196e-06
1.0000271e-06
1.00003748e-06
1.00005181e-06
1.00007162e-06
1.00009899e-06
1.00013682e-06
1.0001892e-06
1.00026194e-06
1.00036365e-06
1.00050766e-06
1.00071604e-06
1.00102798e-06
1.00151685e-06
1.00231795e-06
1.0036302e-06
1.00546255e-06
1.01027984e-06
1.00000012e-06
1.00000035e-06
1.00000059e-06
1.00000086e-06
1.00000115e-06
1.00000148e-06
1.00000187e-06
1.00000232e-06
1.00000284e-06
1.00000344e-06
1.00000414e-06
1.00000494e-06
1.00000585e-06
1.00000687e-06
1.00000802e-06
1.00000928e-06
1.00001066e-06
1.00001214e-06
1.0000137e-06
1.00001533e-06
1.000017e-06
1.00001867e-06
1.0000203e-06
1.00002186e-06
1.0000233e-06
1.00002457e-06
1.00002565e-06
1.00002648e-06
1.00000012e-06
1.00000036e-06
1.00000061e-06
1.00000087e-06
1.00000117e-06
1.00000152e-06
1.00000191e-06
1.00000237e-06
1.00000291e-06
1.00000353e-06
1.00000425e-06
1.00000508e-06
1.00000602e-06
1.00000709e-06
1.00000828e-06
1.0000096e-06
1.00001104e-06
1.00001259e-06
1.00001424e-06
1.00001596e-06
1.00001772e-06
1.00001948e-06
1.00002121e-06
1.00002287e-06
1.0000244e-06
1.00002575e-06
1.0000269e-06
1.00002779e-06
1.00000013e-06
1.00000038e-06
1.00000064e-06
1.00000093e-06
1.00000125e-06
1.00000161e-06
1.00000203e-06
1.00000253e-06
1.00000311e-06
1.00000379e-06
1.00000457e-06
1.00000548e-06
1.00000652e-06
1.0000077e-06
1.00000903e-06
1.00001051e-06
1.00001213e-06
1.00001388e-06
1.00001574e-06
1.0000177e-06
1.00001971e-06
1.00002174e-06
1.00002373e-06
1.00002564e-06
1.00002741e-06
1.00002899e-06
1.00003032e-06
1.00003136e-06
1.00000014e-06
1.00000042e-06
1.00000071e-06
1.00000102e-06
1.00000137e-06
1.00000178e-06
1.00000226e-06
1.00000282e-06
1.00000348e-06
1.00000425e-06
1.00000516e-06
1.00000621e-06
1.00000743e-06
1.00000882e-06
1.00001039e-06
1.00001215e-06
1.00001409e-06
1.0000162e-06
1.00001846e-06
1.00002085e-06
1.00002332e-06
1.00002581e-06
1.00002828e-06
1.00003066e-06
1.00003287e-06
1.00003485e-06
1.00003652e-06
1.00003783e-06
1.00000016e-06
1.00000047e-06
1.0000008e-06
1.00000116e-06
1.00000156e-06
1.00000203e-06
1.00000258e-06
1.00000324e-06
1.00000401e-06
1.00000493e-06
1.00000602e-06
1.00000729e-06
1.00000876e-06
1.00001046e-06
1.0000124e-06
1.00001457e-06
1.000017e-06
1.00001965e-06
1.00002251e-06
1.00002555e-06
1.00002871e-06
1.00003192e-06
1.00003512e-06
1.00003821e-06
1.00004109e-06
1.00004368e-06
1.00004588e-06
1.0000476e-06
1.00000018e-06
1.00000054e-06
1.00000092e-06
1.00000133e-06
1.0000018e-06
1.00000236e-06
1.00000301e-06
1.00000379e-06
1.00000472e-06
1.00000584e-06
1.00000716e-06
1.00000872e-06
1.00001055e-06
1.00001268e-06
1.00001511e-06
1.00001787e-06
1.00002096e-06
1.00002438e-06
1.00002808e-06
1.00003204e-06
1.00003618e-06
1.00004042e-06
1.00004465e-06
1.00004876e-06
1.00005262e-06
1.00005609e-06
1.00005905e-06
1.00006137e-06
1.00000021e-06
1.00000063e-06
1.00000107e-06
1.00000155e-06
1.00000211e-06
1.00000276e-06
1.00000354e-06
1.00000449e-06
1.00000562e-06
1.00000699e-06
1.00000862e-06
1.00001056e-06
1.00001286e-06
1.00001554e-06
1.00001864e-06
1.00002217e-06
1.00002616e-06
1.0000306e-06
1.00003544e-06
1.00004065e-06
1.00004614e-06
1.0000518e-06
1.00005748e-06
1.00006302e-06
1.00006824e-06
1.00007295e-06
1.00007698e-06
1.00008015e-06
1.00000024e-06
1.00000073e-06
1.00000124e-06
1.00000181e-06
1.00000247e-06
1.00000325e-06
1.00000419e-06
1.00000533e-06
1.00000672e-06
1.0000084e-06
1.00001042e-06
1.00001285e-06
1.00001573e-06
1.00001913e-06
1.00002308e-06
1.00002763e-06
1.0000328e-06
1.00003859e-06
1.00004496e-06
1.00005185e-06
1.00005916e-06
1.00006674e-06
1.00007439e-06
1.0000819e-06
1.000089e-06
1.00009544e-06
1.00010096e-06
1.00010532e-06
1.00000028e-06
1.00000085e-06
1.00000145e-06
1.00000212e-06
1.0000029e-06
1.00000383e-06
1.00000496e-06
1.00000634e-06
1.00000803e-06
1.00001009e-06
1.0000126e-06
1.00001562e-06
1.00001925e-06
1.00002355e-06
1.00002859e-06
1.00003444e-06
1.00004113e-06
1.00004868e-06
1.00005706e-06
1.00006618e-06
1.00007593e-06
1.00008609e-06
1.00009643e-06
1.00010662e-06
1.00011631e-06
1.00012513e-06
1.00013271e-06
1.00013872e-06
1.00000032e-06
1.00000098e-06
1.00000168e-06
1.00000247e-06
1.00000338e-06
1.00000449e-06
1.00000584e-06
1.00000751e-06
1.00000956e-06
1.00001208e-06
1.00001518e-06
1.00001894e-06
1.00002348e-06
1.0000289e-06
1.00003531e-06
1.00004281e-06
1.00005145e-06
1.00006128e-06
1.00007226e-06
1.00008432e-06
1.0000973e-06
1.00011093e-06
1.00012488e-06
1.00013871e-06
1.00015194e-06
1.00016403e-06
1.00017445e-06
1.00018274e-06
1.00000037e-06
1.00000113e-06
1.00000194e-06
1.00000286e-06
1.00000393e-06
1.00000524e-06
1.00000685e-06
1.00000884e-06
1.00001132e-06
1.0000144e-06
1.00001819e-06
1.00002284e-06
1.00002849e-06
1.00003529e-06
1.0000434e-06
1.00005296e-06
1.00006407e-06
1.00007681e-06
1.00009117e-06
1.00010706e-06
1.00012429e-06
1.00014253e-06
1.00016132e-06
1.00018008e-06
1.00019812e-06
1.00021469e-06
1.00022904e-06
1.00024047e-06
1.00000043e-06
1.0000013e-06
1.00000223e-06
1.00000328e-06
1.00000453e-06
1.00000607e-06
1.00000797e-06
1.00001034e-06
1.00001332e-06
1.00001703e-06
1.00002165e-06
1.00002735e-06
1.00003433e-06
1.00004281e-06
1.00005301e-06
1.00006512e-06
1.00007932e-06
1.00009575e-06
1.00011442e-06
1.00013527e-06
1.00015806e-06
1.00018239e-06
1.00020765e-06
1.00023305e-06
1.00025763e-06
1.00028033e-06
1.00030006e-06
1.00031584e-06
1.00000049e-06
1.00000147e-06
1.00000253e-06
1.00000373e-06
1.00000518e-06
1.00000696e-06
1.00000918e-06
1.00001199e-06
1.00001553e-06
1.00001998e-06
1.00002555e-06
1.00003248e-06
1.00004104e-06
1.00005153e-06
1.00006424e-06
1.00007948e-06
1.00009752e-06
1.00011856e-06
1.0001427e-06
1.00016991e-06
1.00019993e-06
1.00023225e-06
1.0002661e-06
1.0003004e-06
1.00033383e-06
1.00036489e-06
1.00039201e-06
1.00041377e-06
1.00000054e-06
1.00000165e-06
1.00000284e-06
1.00000421e-06
1.00000586e-06
1.0000079e-06
1.00001048e-06
1.00001376e-06
1.00001792e-06
1.0000232e-06
1.00002987e-06
1.00003822e-06
1.00004862e-06
1.00006147e-06
1.00007718e-06
1.00009619e-06
1.0001189e-06
1.00014565e-06
1.00017666e-06
1.00021194e-06
1.00025125e-06
1.000294e-06
1.00033918e-06