/*--------------------------------*- C++ -*----------------------------------*\
| =========                 |                                                 |
| \\      /  F ield         | foam-extend: Open Source CFD                    |
|  \\    /   O peration     | Version:     4.1                                |
|   \\  /    A nd           | Web:         http://www.foam-extend.org         |
|    \\/     M anipulation  |                                                 |
\*---------------------------------------------------------------------------*/
FoamFile
{
    version     2.0;
    format      ascii;
    class       volVectorField;
    location    "0.7";
    object      cellMotionU;
}
// * * * * * * * * * * * * * * * * * * * * * * * * * * * * * * * * * * * * * //

dimensions      [0 1 -1 0 0 0 0];

internalField   nonuniform List<vector> 
35840
(
(-1.28831431e-21 1.32531465e-09 -2.44989794e-22)
(-3.88078885e-21 3.99223839e-09 -7.37981691e-22)
(-6.56522619e-21 6.75373517e-09 -1.24845837e-21)
(-9.46123258e-21 9.73280206e-09 -1.7991619e-21)
(-1.26865056e-20 1.30504753e-08 -2.41247043e-21)
(-1.63585996e-20 1.68276379e-08 -3.11073346e-21)
(-2.05960021e-20 2.11861219e-08 -3.91647592e-21)
(-2.55183223e-20 2.62488968e-08 -4.85243332e-21)
(-3.12454353e-20 3.21391837e-08 -5.94138834e-21)
(-3.78954456e-20 3.89783554e-08 -7.20578258e-21)
(-4.55813553e-20 4.68825048e-08 -8.66708237e-21)
(-5.4406373e-20 5.59576181e-08 -1.03448858e-20)
(-6.4457866e-20 6.62933559e-08 -1.22557727e-20)
(-7.58000681e-20 7.79555592e-08 -1.44119173e-20)
(-8.84657905e-20 9.0977737e-08 -1.68195141e-20)
(-1.02447551e-19 1.05351962e-07 -1.94770917e-20)
(-1.17688719e-19 1.21019792e-07 -2.23738339e-20)
(-1.34075463e-19 1.37864013e-07 -2.54880518e-20)
(-1.51430419e-19 1.55702167e-07 -2.87859869e-20)
(-1.69509104e-19 1.74282897e-07 -3.2221137e-20)
(-1.88000078e-19 1.93286132e-07 -3.5734293e-20)
(-2.06529689e-19 2.12327986e-07 -3.92544498e-20)
(-2.24671969e-19 2.30970936e-07 -4.27006916e-20)
(-2.41963771e-19 2.48739367e-07 -4.59850718e-20)
(-2.57924706e-19 2.65140032e-07 -4.90164001e-20)
(-2.72080822e-19 2.79686354e-07 -5.17047358e-20)
(-2.8399046e-19 2.91924938e-07 -5.396629e-20)
(-2.93270391e-19 3.0146238e-07 -5.57283779e-20)
(-3.8813833e-21 3.99285021e-09 -7.38094734e-22)
(-1.16891174e-20 1.20247849e-08 -2.22283216e-21)
(-1.97705089e-20 2.03381364e-08 -3.75959907e-21)
(-2.84885111e-20 2.93061481e-08 -5.41740729e-21)
(-3.81997725e-20 3.92955827e-08 -7.26406673e-21)
(-4.9260404e-20 5.06726294e-08 -9.36728042e-21)
(-6.20294547e-20 6.38064625e-08 -1.17953036e-20)
(-7.68696426e-20 7.90699763e-08 -1.46170804e-20)
(-9.41448999e-20 9.6837242e-08 -1.79017748e-20)
(-1.1421432e-19 1.17477265e-07 -2.17176163e-20)
(-1.37422164e-19 1.4134369e-07 -2.61299972e-20)
(-1.64083707e-19 1.6876024e-07 -3.1198779e-20)
(-1.9446694e-19 2.00001897e-07 -3.69748104e-20)
(-2.28770421e-19 2.35272147e-07 -4.34957171e-20)
(-2.67098039e-19 2.74677064e-07 -5.0781105e-20)
(-3.09431915e-19 3.18197499e-07 -5.88274132e-20)
(-3.55605247e-19 3.65661242e-07 -6.76027628e-20)
(-4.05277491e-19 4.16717594e-07 -7.70422515e-20)
(-4.57914688e-19 4.70817244e-07 -8.70442352e-20)
(-5.12778083e-19 5.27200668e-07 -9.74681874e-20)
(-5.68924106e-19 5.84898193e-07 -1.08134722e-19)
(-6.25218385e-19 6.42744457e-07 -1.18828283e-19)
(-6.80365515e-19 6.99409019e-07 -1.29302817e-19)
(-7.32954976e-19 7.53443519e-07 -1.39290516e-19)
(-7.81521855e-19 8.03343998e-07 -1.48513345e-19)
(-8.24619164e-19 8.47625089e-07 -1.56696767e-19)
(-8.60896881e-19 8.84901072e-07 -1.63584723e-19)
(-8.89181646e-19 9.139676e-07 -1.68954728e-19)
(-6.56741943e-21 6.75599285e-09 -1.24887544e-21)
(-1.97740968e-20 2.03418302e-08 -3.76028135e-21)
(-3.34409236e-20 3.44008449e-08 -6.35917163e-21)
(-4.81909235e-20 4.95737197e-08 -9.16400614e-21)
(-6.46361144e-20 6.64898163e-08 -1.22911461e-20)
(-8.3388144e-20 8.57780699e-08 -1.58568733e-20)
(-1.05064865e-19 1.08073722e-07 -1.99786369e-20)
(-1.30292127e-19 1.34020129e-07 -2.47753899e-20)
(-1.59700044e-19 1.64264892e-07 -3.03668735e-20)
(-1.93913009e-19 1.99449547e-07 -3.68717137e-20)
(-2.33532833e-19 2.40192203e-07 -4.44042083e-20)
(-2.79114583e-19 2.87062671e-07 -5.30697275e-20)
(-3.31135049e-19 3.40550045e-07 -6.29587135e-20)
(-3.89954308e-19 4.01023213e-07 -7.41393722e-20)
(-4.55771575e-19 4.68685529e-07 -8.66492818e-20)
(-5.28577427e-19 5.43525799e-07 -1.0048632e-19)
(-6.08105487e-19 6.25268759e-07 -1.15599499e-19)
(-6.93787699e-19 7.13329265e-07 -1.31880491e-19)
(-7.84718189e-19 8.06775345e-07 -1.49156799e-19)
(-8.79631303e-19 9.04305812e-07 -1.67187636e-19)
(-9.76899423e-19 1.00424818e-06 -1.85663557e-19)
(-1.07455548e-18 1.1045819e-06 -2.04210802e-19)
(-1.17034353e-18 1.20299039e-06 -2.2240094e-19)
(-1.26179829e-18 1.29694266e-06 -2.39766013e-19)
(-1.34635153e-18 1.38380257e-06 -2.55818744e-19)
(-1.42145968e-18 1.46095963e-06 -2.70076736e-19)
(-1.48474378e-18 1.52597254e-06 -2.82088986e-19)
(-1.53413061e-18 1.57671385e-06 -2.91462591e-19)
(-9.46575842e-21 9.73746183e-09 -1.80002254e-21)
(-2.84978415e-20 2.93157564e-08 -5.41918158e-21)
(-4.81980361e-20 4.95810464e-08 -9.16535868e-21)
(-6.94842027e-20 7.14771874e-08 -1.32130692e-20)
(-9.32589033e-20 9.59322825e-08 -1.77339096e-20)
(-1.20426465e-19 1.2387616e-07 -2.28997962e-20)
(-1.51903936e-19 1.56251589e-07 -2.88850426e-20)
(-1.88624898e-19 1.94018144e-07 -3.58670765e-20)
(-2.31535012e-19 2.38147562e-07 -4.40255825e-20)
(-2.81578159e-19 2.89609434e-07 -5.35398573e-20)
(-3.39672158e-19 3.49346179e-07 -6.45841797e-20)
(-4.06673268e-19 4.1823652e-07 -7.73210503e-20)
(-4.83329197e-19 4.97047168e-07 -9.18922475e-20)
(-5.70221107e-19 5.86373252e-07 -1.08407796e-19)
(-6.67696173e-19 6.86569102e-07 -1.2693315e-19)
(-7.75793672e-19 7.9767245e-07 -1.47475156e-19)
(-8.94169131e-19 9.19326711e-07 -1.6996767e-19)
(-1.02202277e-18 1.05070774e-06 -1.94258005e-19)
(-1.15804001e-18 1.19046297e-06 -2.20095698e-19)
(-1.3003528e-18 1.33667207e-06 -2.47125257e-19)
(-1.44653091e-18 1.48683821e-06 -2.74884617e-19)
(-1.59361142e-18 1.63791852e-06 -3.02810846e-19)
(-1.73817223e-18 1.78639974e-06 -3.30254202e-19)
(-1.8764518e-18 1.92842107e-06 -3.56500946e-19)
(-2.0045123e-18 2.05994163e-06 -3.8080432e-19)
(-2.11843764e-18 2.17694345e-06 -4.02422095e-19)
(-2.21455235e-18 2.27565592e-06 -4.20657994e-19)
(-2.28964303e-18 2.35278268e-06 -4.3490355e-19)
(-1.26939435e-20 1.3058135e-08 -2.41388481e-21)
(-3.82165316e-20 3.93128453e-08 -7.26725364e-21)
(-6.46530736e-20 6.6507291e-08 -1.2294371e-20)
(-9.32697814e-20 9.59434954e-08 -1.77359781e-20)
(-1.25314391e-19 1.28904428e-07 -2.38292864e-20)
(-1.62042092e-19 1.66680559e-07 -3.08128989e-20)
(-2.0473287e-19 2.10587604e-07 -3.89300967e-20)
(-2.5469887e-19 2.61974005e-07 -4.84302251e-20)
(-3.13280141e-19 3.22216456e-07 -5.95678676e-20)
(-3.81827071e-19 3.92701741e-07 -7.25994863e-20)
(-4.6166788e-19 4.74793232e-07 -8.77772186e-20)
(-5.54059794e-19 5.69780631e-07 -1.05339571e-19)
(-6.60123131e-19 6.78812234e-07 -1.25498869e-19)
(-7.80758582e-19 8.02809974e-07 -1.48425515e-19)
(-9.16549484e-19 9.42369171e-07 -1.74229414e-19)
(-1.06765292e-18 1.0976469e-06 -2.02939295e-19)
(-1.23368588e-18 1.26824539e-06 -2.34481122e-19)
(-1.41361537e-18 1.45309961e-06 -2.68657308e-19)
(-1.60566385e-18 1.65038058e-06 -3.05128868e-19)
(-1.80724336e-18 1.85742823e-06 -3.43403083e-19)
(-2.01493246e-18 2.07072809e-06 -3.82829329e-19)
(-2.22450936e-18 2.28594561e-06 -4.22605577e-19)
(-2.43105129e-18 2.4980283e-06 -4.61797464e-19)
(-2.62910479e-18 2.7013805e-06 -4.99370751e-19)
(-2.81292381e-18 2.89010756e-06 -5.34236564e-19)
(-2.97676356e-18 3.05831711e-06 -5.65307051e-19)
(-3.11520889e-18 3.20045558e-06 -5.91557469e-19)
(-3.22350876e-18 3.31165095e-06 -6.12089284e-19)
(-1.63694608e-20 1.68388256e-08 -3.11279881e-21)
(-4.92861115e-20 5.06991157e-08 -9.37216888e-21)
(-8.34174802e-20 8.58083061e-08 -1.58624517e-20)
(-1.20451751e-19 1.23902232e-07 -2.29046043e-20)
(-1.62057459e-19 1.66696409e-07 -3.08158209e-20)
(-2.09921829e-19 2.15925284e-07 -3.99168069e-20)
(-2.65777424e-19 2.73369493e-07 -5.05368275e-20)
(-3.31415388e-19 3.40869337e-07 -6.30162024e-20)
(-4.0868292e-19 4.20322018e-07 -7.77057944e-20)
(-4.9946245e-19 5.13660079e-07 -9.49630144e-20)
(-6.05630065e-19 6.22808529e-07 -1.15143876e-19)
(-7.28990808e-19 7.49618268e-07 -1.38590651e-19)
(-8.71189185e-19 8.95774118e-07 -1.65614812e-19)
(-1.03359452e-18 1.06267716e-06 -1.96475211e-19)
(-1.21716295e-18 1.25130318e-06 -2.31351832e-19)
(-1.42228058e-18 1.46204205e-06 -2.70316016e-19)
(-1.64859612e-18 1.69452634e-06 -3.13298725e-19)
(-1.89485508e-18 1.94746175e-06 -3.60059198e-19)
(-2.15875195e-18 2.21847603e-06 -4.10157098e-19)
(-2.43682004e-18 2.50400657e-06 -4.62931906e-19)
(-2.72438085e-18 2.79924899e-06 -5.17493699e-19)
(-3.01557404e-18 3.09818828e-06 -5.72729259e-19)
(-3.30348535e-18 3.3937302e-06 -6.27326752e-19)
(-3.58038166e-18 3.67794244e-06 -6.79820627e-19)
(-3.83805104e-18 3.94240323e-06 -7.28656226e-19)
(-4.06823103e-18 4.17864027e-06 -7.72270867e-19)
(-4.26309414e-18 4.37862823e-06 -8.0918547e-19)
(-4.41574677e-18 4.53530003e-06 -8.38098487e-19)
(-2.061077e-20 2.12013369e-08 -3.91928409e-21)
(-6.20656954e-20 6.38438095e-08 -1.18021949e-20)
(-1.05109494e-19 1.08119731e-07 -1.99871232e-20)
(-1.51947883e-19 1.56296913e-07 -2.88933991e-20)
(-2.0476905e-19 2.10624929e-07 -3.8936976e-20)
(-2.65799304e-19 2.73392073e-07 -5.05409878e-20)
(-3.37343067e-19 3.4696625e-07 -6.41433204e-20)
(-4.21805534e-19 4.3381805e-07 -8.02008802e-20)
(-5.21694304e-19 5.36522173e-07 -9.9189851e-20)
(-6.39596324e-19 6.57733491e-07 -1.21601246e-19)
(-7.78126669e-19 8.00134208e-07 -1.47931095e-19)
(-9.39845112e-19 9.66348019e-07 -1.78664498e-19)
(-1.12713729e-18 1.15881804e-06 -2.14252952e-19)
(-1.34205875e-18 1.37964683e-06 -2.5508464e-19)
(-1.58614313e-18 1.6303998e-06 -3.0144793e-19)
(-1.86017944e-18 1.91187718e-06 -3.53489081e-19)
(-2.16396886e-18 2.22386515e-06 -4.11166152e-19)
(-2.49607741e-18 2.56488291e-06 -4.74202258e-19)
(-2.85360721e-18 2.93194893e-06 -5.42042547e-19)
(-3.23201547e-18 3.32039607e-06 -6.13820399e-19)
(-3.62501408e-18 3.72376917e-06 -6.88339101e-19)
(-4.02458335e-18 4.1338397e-06 -7.64075284e-19)
(-4.42112903e-18 4.54076681e-06 -8.39209502e-19)
(-4.80380034e-18 4.93342343e-06 -9.11687174e-19)
(-5.1609697e-18 5.29988789e-06 -9.79309803e-19)
(-5.48085243e-18 5.62807889e-06 -1.03985219e-18)
(-5.75222083e-18 5.90648728e-06 -1.09119695e-18)
(-5.9651464e-18 6.1249365e-06 -1.1314738e-18)
(-2.55373634e-20 2.62685185e-08 -4.85605396e-21)
(-7.69181333e-20 7.91199573e-08 -1.46263008e-20)
(-1.30356036e-19 1.34086025e-07 -2.47875419e-20)
(-1.88693736e-19 1.94089146e-07 -3.58801653e-20)
(-2.54763907e-19 2.62041109e-07 -4.84425908e-20)
(-3.31468672e-19 3.40924332e-07 -6.30263332e-20)
(-4.21837955e-19 4.33851523e-07 -8.02070441e-20)
(-5.29067158e-19 5.44104057e-07 -1.00591606e-19)
(-6.56526775e-19 6.75141484e-07 -1.2481987e-19)
(-8.07738889e-19 8.3057703e-07 -1.53560073e-19)
(-9.86316589e-19 1.01411506e-06 -1.87497181e-19)
(-1.19585906e-18 1.22944318e-06 -2.27312789e-19)
(-1.43979678e-18 1.48007332e-06 -2.73655538e-19)
(-1.7211827e-18 1.76912761e-06 -3.2710126e-19)
(-2.0424289e-18 2.09906879e-06 -3.88102846e-19)
(-2.40499385e-18 2.47138006e-06 -4.56930819e-19)
(-2.80903246e-18 2.8862072e-06 -5.3360702e-19)
(-3.25303028e-18 3.34198452e-06 -6.1783553e-19)
(-3.73345316e-18 3.83507663e-06 -7.08936857e-19)
(-4.24445405e-18 4.35947883e-06 -8.05793335e-19)
(-4.77768669e-18 4.90662662e-06 -9.06815139e-19)
(-5.32227893e-18 5.46536862e-06 -1.00993682e-18)
(-5.86501372e-18 6.02215218e-06 -1.11265322e-18)
(-6.39075134e-18 6.56145574e-06 -1.21210084e-18)
(-6.88310039e-18 7.0664764e-06 -1.30518554e-18)
(-7.32531089e-18 7.52004485e-06 -1.38875141e-18)
(-7.70132361e-18 7.90570068e-06 -1.45977787e-18)
(-7.99687473e-18 8.2088245e-06 -1.51558619e-18)
(-3.12684797e-20 3.21629373e-08 -5.94577001e-21)
(-9.42070002e-20 9.69012637e-08 -1.79135825e-20)
(-1.59789242e-19 1.6435687e-07 -3.03838333e-20)
(-2.31638839e-19 2.38254654e-07 -4.40453233e-20)
(-3.13387057e-19 3.22326768e-07 -5.9588195e-20)
(-4.08783211e-19 4.20425528e-07 -7.77248611e-20)
(-5.21775837e-19 5.36606358e-07 -9.92053508e-20)
(-6.56575648e-19 6.75191974e-07 -1.24829161e-19)
(-8.1767888e-19 8.40795844e-07 -1.55449539e-19)
(-1.00984544e-18 1.03829925e-06 -1.91969132e-19)
(-1.23803154e-18 1.27278169e-06 -2.35326926e-19)
(-1.5072611e-18 1.54938877e-06 -2.8647352e-19)
(-1.82242842e-18 1.87312967e-06 -3.46333289e-19)
(-2.18802238e-18 2.24859479e-06 -4.15751677e-19)
(-2.60776978e-18 2.67959063e-06 -4.95427168e-19)
(-3.08420052e-18 3.16869513e-06 -5.85828615e-19)
(-3.61814895e-18 3.71674775e-06 -6.87100719e-19)
(-4.20821773e-18 4.32230119e-06 -7.98962862e-19)
(-4.85024621e-18 4.9810776e-06 -9.20609391e-19)
(-5.53684239e-18 5.68548971e-06 -1.05062269e-18)
(-6.25705245e-18 6.42430234e-06 -1.18691305e-18)
(-6.99625012e-18 7.18251885e-06 -1.32670078e-18)
(-7.73632507e-18 7.94157372e-06 -1.46655512e-18)
(-8.45623082e-18 8.67989329e-06 -1.60250071e-18)
(-9.13291537e-18 9.37384897e-06 -1.73019535e-18)
(-9.74260451e-18 9.99907205e-06 -1.84517229e-18)
(-1.02623442e-17 1.05320344e-05 -1.94312919e-18)
(-1.06716484e-17 1.0951738e-05 -2.02023459e-18)
(-3.79195871e-20 3.90032545e-08 -7.2103725e-21)
(-1.1428862e-19 1.17553886e-07 -2.17317425e-20)
(-1.94037345e-19 1.99577755e-07 -3.6895353e-20)
(-2.81734187e-19 2.89770348e-07 -5.35695212e-20)
(-3.81997097e-19 3.92877147e-07 -7.26318101e-20)
(-4.99636632e-19 5.13839827e-07 -9.49961265e-20)
(-6.39755685e-19 6.5789803e-07 -1.21631539e-19)
(-8.07863347e-19 8.30705633e-07 -1.53583729e-19)
(-1.00991925e-18 1.03837558e-06 -1.91983159e-19)
(-1.2523118e-18 1.28745686e-06 -2.38040586e-19)
(-1.54179383e-18 1.58486802e-06 -2.93034393e-19)
(-1.88532853e-18 1.93773895e-06 -3.58280769e-19)
(-2.28984453e-18 2.35315992e-06 -4.35086557e-19)
(-2.76187731e-18 2.83781472e-06 -5.24680503e-19)
(-3.30709257e-18 3.39749323e-06 -6.28122153e-19)
(-3.92968844e-18 4.03648028e-06 -7.46188023e-19)
(-4.63169221e-18 4.75683655e-06 -8.79238216e-19)
(-5.41218238e-18 5.55760286e-06 -1.02706969e-18)
(-6.26648998e-18 6.43398261e-06 -1.18876669e-18)
(-7.18546133e-18 7.37658665e-06 -1.36256423e-18)
(-8.15489097e-18 8.37085158e-06 -1.54574531e-18)
(-9.15525186e-18 9.39676219e-06 -1.73459572e-18)
(-1.01618518e-17 1.04290102e-05 -1.92444002e-18)
(-1.11455228e-17 1.14376993e-05 -2.10977773e-18)
(-1.20738986e-17 1.23896535e-05 -2.28452846e-18)
(-1.29132528e-17 1.32503009e-05 -2.44237896e-18)
(-1.36307674e-17 1.39859986e-05 -2.57720646e-18)
(-1.41969987e-17 1.45665618e-05 -2.68353429e-18)
(-4.55939553e-20 4.68955533e-08 -8.66947698e-21)
(-1.37495409e-19 1.41419291e-07 -2.6143921e-20)
(-2.33711553e-19 2.40376458e-07 -4.44381848e-20)
(-3.39911067e-19 3.49592512e-07 -6.46295977e-20)
(-4.61933008e-19 4.75066703e-07 -8.78276184e-20)
(-6.05925516e-19 6.23113346e-07 -1.15200037e-19)
(-7.7841514e-19 8.00432e-07 -1.47985924e-19)
(-9.86561266e-19 1.01436792e-06 -1.87543681e-19)
(-1.2382218e-18 1.27297854e-06 -2.35363078e-19)
(-1.54190595e-18 1.58498417e-06 -2.93055693e-19)
(-1.90675313e-18 1.95974599e-06 -3.62350122e-19)
(-2.34234259e-18 2.4070708e-06 -4.45054842e-19)
(-2.85840551e-18 2.93691661e-06 -5.43002377e-19)
(-3.46436334e-18 3.55892075e-06 -6.57960361e-19)
(-4.16870271e-18 4.28176121e-06 -7.91511663e-19)
(-4.97816228e-18 5.1123255e-06 -9.44899149e-19)
(-5.89675266e-18 6.0547085e-06 -1.11883959e-18)
(-6.92464096e-18 7.10907086e-06 -1.31331325e-18)
(-8.05696335e-18 8.2704227e-06 -1.52734183e-18)
(-9.28267877e-18 9.52744807e-06 -1.75877695e-18)
(-1.05836208e-17 1.08615314e-05 -2.00412907e-18)
(-1.19339414e-17 1.22461849e-05 -2.25847349e-18)
(-1.3300155e-17 1.36470902e-05 -2.51547122e-18)
(-1.46419664e-17 1.50229454e-05 -2.76753762e-18)
(-1.59140003e-17 1.63272358e-05 -3.00617698e-18)
(-1.70684226e-17 1.75109211e-05 -3.22247791e-18)
(-1.8058279e-17 1.85258585e-05 -3.40773369e-18)
(-1.88411976e-17 1.93286008e-05 -3.55412065e-18)
(-5.43150708e-20 5.586383e-08 -1.03275236e-20)
(-1.64097832e-19 1.68775117e-07 -3.1201458e-20)
(-2.79399331e-19 2.87356117e-07 -5.31238574e-20)
(-4.07053951e-19 4.18628896e-07 -7.73934155e-20)
(-5.54454808e-19 5.70188047e-07 -1.05414655e-19)
(-7.29494657e-19 7.50137896e-07 -1.38686415e-19)
(-9.40357176e-19 9.66876455e-07 -1.78761814e-19)
(-1.19629368e-18 1.22989235e-06 -2.27395376e-19)
(-1.5076439e-18 1.54978485e-06 -2.86546242e-19)
(-1.88562157e-18 1.93804266e-06 -3.58336422e-19)
(-2.34252227e-18 2.40725726e-06 -4.45088954e-19)
(-2.89141242e-18 2.97080443e-06 -5.492671e-19)
(-3.54585077e-18 3.64256031e-06 -6.73419354e-19)
(-4.31928148e-18 4.43628178e-06 -8.20061822e-19)
(-5.22424354e-18 5.36479926e-06 -9.91525708e-19)
(-6.27127056e-18 6.43889233e-06 -1.18974652e-18)
(-7.46754594e-18 7.66591405e-06 -1.41600807e-18)
(-8.81532654e-18 9.04817671e-06 -1.67064489e-18)
(-1.0310197e-17 1.0581162e-05 -1.95271616e-18)
(-1.19393099e-17 1.2251715e-05 -2.25968207e-18)
(-1.36798345e-17 1.40364496e-05 -2.58712546e-18)
(-1.54979046e-17 1.59006654e-05 -2.92857405e-18)
(-1.73483957e-17 1.77981153e-05 -3.27548332e-18)
(-1.91758471e-17 1.96719466e-05 -3.61743538e-18)
(-2.09167564e-17 2.14570525e-05 -3.9425899e-18)
(-2.25032942e-17 2.30838809e-05 -4.2383881e-18)
(-2.38682179e-17 2.44834746e-05 -4.49246134e-18)
(-2.49504528e-17 2.55931966e-05 -4.69364291e-18)
(-6.44804679e-20 6.63167671e-08 -1.22600681e-20)
(-1.94624153e-19 2.00164078e-07 -3.70046955e-20)
(-3.314305e-19 3.40854753e-07 -6.30148777e-20)
(-4.83581316e-19 4.97307745e-07 -9.19401689e-20)
(-6.60617824e-19 6.79322698e-07 -1.25592886e-19)
(-8.72083948e-19 8.96696418e-07 -1.65784859e-19)
(-1.12805836e-18 1.15976808e-06 -2.14427978e-19)
(-1.44050298e-18 1.48080328e-06 -2.73789702e-19)
(-1.82314653e-18 1.87387248e-06 -3.46469678e-19)
(-2.290435e-18 2.353772e-06 -4.35198666e-19)
(-2.85889257e-18 2.9374221e-06 -5.43094808e-19)
(-3.54613262e-18 3.64285348e-06 -6.73472816e-19)
(-4.37091452e-18 4.48926866e-06 -8.2985093e-19)
(-5.35220929e-18 5.4960882e-06 -1.01576915e-18)
(-6.50831201e-18 6.68204548e-06 -1.23461592e-18)
(-7.85532362e-18 8.06363473e-06 -1.48933579e-18)
(-9.40534942e-18 9.6532671e-06 -1.78208494e-18)
(-1.11643164e-17 1.14570336e-05 -2.11381826e-18)
(-1.31294329e-17 1.34720986e-05 -2.48381502e-18)
(-1.52865245e-17 1.5683963e-05 -2.88919035e-18)
(-1.76075412e-17 1.80639023e-05 -3.32445092e-18)
(-2.00486724e-17 2.05670266e-05 -3.78117804e-18)
(-2.25495815e-17 2.31314899e-05 -4.2479321e-18)
(-2.5034285e-17 2.56793887e-05 -4.71046945e-18)
(-2.74141095e-17 2.81197927e-05 -5.15233989e-18)
(-2.95929059e-17 3.03540942e-05 -5.55588127e-18)
(-3.14742737e-17 3.22834194e-05 -5.90354902e-18)
(-3.29700102e-17 3.38172973e-05 -6.17942754e-18)
(-7.58435194e-20 7.80004938e-08 -1.44201774e-20)
(-2.28920932e-19 2.35427687e-07 -4.35243294e-20)
(-3.90223081e-19 4.0130091e-07 -7.41904646e-20)
(-5.70621434e-19 5.86786843e-07 -1.0848389e-19)
(-7.8148332e-19 8.03557823e-07 -1.48563261e-19)
(-1.03450385e-18 1.06361577e-06 -1.96648027e-19)
(-1.34272074e-18 1.38033257e-06 -2.55210438e-19)
(-1.72211634e-18 1.77009388e-06 -3.27278583e-19)
(-2.18939992e-18 2.25001839e-06 -4.16013242e-19)
(-2.76292763e-18 2.83890364e-06 -5.24879848e-19)
(-3.46542282e-18 3.5600195e-06 -6.58161336e-19)
(-4.32003188e-18 4.43706244e-06 -8.20204073e-19)
(-5.35267633e-18 5.49657461e-06 -1.0158576e-18)
(-6.58972641e-18 6.76556389e-06 -1.25002511e-18)
(-8.05760627e-18 8.2711056e-06 -1.5275791e-18)
(-9.78043057e-18 1.00379245e-05 -1.85290414e-18)
(-1.17777325e-17 1.20860672e-05 -2.22945902e-18)
(-1.40615365e-17 1.44278996e-05 -2.65922029e-18)
(-1.66326771e-17 1.70643265e-05 -3.14199425e-18)
(-1.94768333e-17 1.99807165e-05 -3.67469139e-18)
(-2.25605885e-17 2.31428524e-05 -4.25062871e-18)
(-2.58281829e-17 2.64935919e-05 -4.85898859e-18)
(-2.91997276e-17 2.99510314e-05 -5.48457665e-18)
(-3.25717342e-17 3.34090461e-05 -6.10802602e-18)
(-3.58207488e-17 3.67410192e-05 -6.70657083e-18)
(-3.88105652e-17 3.98072434e-05 -7.25544074e-18)
(-4.14028188e-17 4.2465791e-05 -7.72980314e-18)
(-4.34698335e-17 4.45856945e-05 -8.10702379e-18)
(-8.85107894e-20 9.10243727e-08 -1.68280686e-20)
(-2.67239193e-19 2.74823319e-07 -5.08079388e-20)
(-4.56020205e-19 4.68943123e-07 -8.66965453e-20)
(-6.68075073e-19 6.86961658e-07 -1.27005172e-19)
(-9.17109781e-19 9.42949535e-07 -1.74335907e-19)
(-1.21787982e-18 1.25204617e-06 -2.31488066e-19)
(-1.58699156e-18 1.63128004e-06 -3.01609131e-19)
(-2.04371452e-18 2.10040048e-06 -3.88347037e-19)
(-2.60872416e-18 2.68058514e-06 -4.95608414e-19)
(-3.3086037e-18 3.39906226e-06 -6.28408799e-19)
(-4.17097672e-18 4.28411513e-06 -7.91942826e-19)
(-5.22573317e-18 5.366349e-06 -9.91807891e-19)
(-6.50962336e-18 6.68340982e-06 -1.23486405e-18)
(-8.05816673e-18 8.27169313e-06 -1.52768498e-18)
(-9.90946184e-18 1.01702594e-05 -1.87726211e-18)
(-1.20988595e-17 1.24153771e-05 -2.28997734e-18)
(-1.46567907e-17 1.50382947e-05 -2.77117458e-18)
(-1.76050403e-17 1.80614142e-05 -3.32444497e-18)
(-2.09513077e-17 2.14927032e-05 -3.95060632e-18)
(-2.46834766e-17 2.53198056e-05 -4.6466561e-18)
(-2.87634633e-17 2.95037203e-05 -5.40468812e-18)
(-3.31217991e-17 3.3973238e-05 -6.21100016e-18)
(-3.76540375e-17 3.86212518e-05 -7.04559731e-18)
(-4.222031e-17 4.33043047e-05 -7.88232069e-18)
(-4.66494389e-17 4.78468125e-05 -8.6898171e-18)
(-5.07486835e-17 5.20510668e-05 -9.43347478e-18)
(-5.43191889e-17 5.57130866e-05 -1.00782531e-17)
(-5.71756071e-17 5.8642746e-05 -1.05920673e-17)
(-1.02489539e-19 1.05395656e-07 -1.94850739e-20)
(-3.09560531e-19 3.18331343e-07 -5.88518637e-20)
(-5.28801028e-19 5.43758534e-07 -1.00528826e-19)
(-7.76128629e-19 7.98021245e-07 -1.47538825e-19)
(-1.06812263e-18 1.09813631e-06 -2.03028569e-19)
(-1.42289679e-18 1.46268478e-06 -2.70433115e-19)
(-1.86097021e-18 1.91270275e-06 -3.53639317e-19)
(-2.4060505e-18 2.47248297e-06 -4.57131506e-19)
(-3.08551532e-18 3.17006784e-06 -5.86078218e-19)
(-3.93181273e-18 4.03868863e-06 -7.46591063e-19)
(-4.97957299e-18 5.11380648e-06 -9.45166766e-19)
(-6.27350384e-18 6.44122057e-06 -1.19016907e-18)
(-7.85856599e-18 8.06699732e-06 -1.48994874e-18)
(-9.78172199e-18 1.00392811e-05 -1.85314758e-18)
(-1.20996263e-17 1.24161836e-05 -2.29012121e-18)
(-1.48624344e-17 1.52491849e-05 -2.80983979e-18)
(-1.81160463e-17 1.85854296e-05 -3.42027562e-18)
(-2.18975738e-17 2.24630655e-05 -4.12751729e-18)
(-2.62265425e-17 2.69022064e-05 -4.93410875e-18)
(-3.10972915e-17 3.18971207e-05 -5.83765964e-18)
(-3.6469317e-17 3.74063154e-05 -6.8291498e-18)
(-4.22585413e-17 4.33435773e-05 -7.89150978e-18)
(-4.83306668e-17 4.95711577e-05 -8.99870743e-18)
(-5.4498595e-17 5.5897134e-05 -1.01156874e-17)
(-6.05263188e-17 6.20794107e-05 -1.11995302e-17)
(-6.61415902e-17 6.78387213e-05 -1.22021036e-17)
(-7.10582101e-17 7.28814949e-05 -1.30741706e-17)
(-7.50060974e-17 7.69306996e-05 -1.37704603e-17)
(-1.17726628e-19 1.21059512e-07 -2.23810406e-20)
(-3.55720418e-19 3.65781947e-07 -6.76246568e-20)
(-6.0830394e-19 6.2547689e-07 -1.15637223e-19)
(-8.94463109e-19 9.19635413e-07 -1.70023549e-19)
(-1.23409285e-18 1.26867344e-06 -2.3455847e-19)
(-1.64913661e-18 1.69509588e-06 -3.13401429e-19)
(-2.16467589e-18 2.22461131e-06 -4.1130047e-19)
(-2.80996099e-18 2.88718767e-06 -5.33783358e-19)
(-3.61935718e-18 3.71802324e-06 -6.87330066e-19)
(-4.63331488e-18 4.75854583e-06 -8.79546051e-19)
(-5.89868592e-18 6.05674427e-06 -1.11920603e-18)
(-7.47066081e-18 7.66916755e-06 -1.41659778e-18)
(-9.40656713e-18 9.65457785e-06 -1.78231564e-18)
(-1.17793263e-17 1.20877614e-05 -2.2297578e-18)
(-1.46591685e-17 1.50407814e-05 -2.77161945e-18)
(-1.81189021e-17 1.85883865e-05 -3.42080967e-18)
(-2.22256333e-17 2.27995019e-05 -4.18882029e-18)
(-2.70409057e-17 2.77373544e-05 -5.08567557e-18)
(-3.26029248e-17 3.34412216e-05 -6.11655998e-18)
(-3.89198772e-17 3.9919563e-05 -7.280595e-18)
(-4.59536738e-17 4.71333374e-05 -8.56797062e-18)
(-5.36066356e-17 5.49823504e-05 -9.95781704e-18)
(-6.17099343e-17 6.32934082e-05 -1.14166468e-17)
(-7.00168169e-17 7.18133822e-05 -1.28979168e-17)
(-7.82045184e-17 8.02111829e-05 -1.43433074e-17)
(-8.58896258e-17 8.80935255e-05 -1.5686296e-17)
(-9.26595952e-17 9.5037258e-05 -1.68580881e-17)
(-9.81188754e-17 0.000100636667 -1.77952157e-17)
(-1.34109262e-19 1.37899818e-07 -2.54944771e-20)
(-4.05379808e-19 4.16826056e-07 -7.70617018e-20)
(-6.93963163e-19 7.13515541e-07 -1.31913845e-19)
(-1.02228143e-18 1.05098302e-06 -1.94307168e-19)
(-1.41397253e-18 1.45348091e-06 -2.68725186e-19)
(-1.89533189e-18 1.94797243e-06 -3.60149796e-19)
(-2.49670438e-18 2.56555623e-06 -4.74321358e-19)
(-3.25385017e-18 3.34286631e-06 -6.17991219e-19)
(-4.20928267e-18 4.32344663e-06 -7.99164984e-19)
(-5.41355719e-18 5.55907934e-06 -1.02733045e-18)
(-6.92634827e-18 7.1109011e-06 -1.31363678e-18)
(-8.81742537e-18 9.0504189e-06 -1.67104215e-18)
(-1.11660972e-17 1.14589554e-05 -2.11415473e-18)
(-1.40628485e-17 1.44293393e-05 -2.6594672e-18)
(-1.76108506e-17 1.80674576e-05 -3.32553057e-18)
(-2.19076726e-17 2.24734857e-05 -4.12940344e-18)
(-2.70451748e-17 2.77417678e-05 -5.08646895e-18)
(-3.31275494e-17 3.39792781e-05 -6.21366113e-18)
(-4.02178621e-17 4.12507817e-05 -7.51934647e-18)
(-4.83516612e-17 4.95927729e-05 -9.00583684e-18)
(-5.75018968e-17 5.89774967e-05 -1.0663086e-17)
(-6.75618828e-17 6.92954867e-05 -1.24660772e-17)
(-7.83260054e-17 8.03357966e-05 -1.43722847e-17)
(-8.94753677e-17 9.17712941e-05 -1.63205788e-17)
(-1.00573767e-16 0.000103154544 -1.82324171e-17)
(-1.11083884e-16 0.000113934417 -2.00165718e-17)
(-1.20410173e-16 0.000123500073 -2.15776421e-17)
(-1.27969213e-16 0.00013125312 -2.28274225e-17)
(-1.51460402e-19 1.55734484e-07 -2.87916868e-20)
(-4.58005302e-19 4.70915032e-07 -8.70614604e-20)
(-7.84873235e-19 8.0694312e-07 -1.49186271e-19)
(-1.15826818e-18 1.19071096e-06 -2.20139064e-19)
(-1.6059789e-18 1.65072483e-06 -3.05188739e-19)
(-2.15917359e-18 2.21893921e-06 -4.10237209e-19)
(-2.85416293e-18 2.9325621e-06 -5.42148104e-19)
(-3.73417998e-18 3.83588066e-06 -7.09074858e-19)
(-4.85119142e-18 4.98212343e-06 -9.20788756e-19)
(-6.26771271e-18 6.43533219e-06 -1.18899854e-18)
(-8.05853251e-18 8.27214607e-06 -1.52763903e-18)
(-1.0312223e-17 1.05833692e-05 -1.95309927e-18)
(-1.31320923e-17 1.34749643e-05 -2.48431661e-18)
(-1.66369654e-17 1.70688626e-05 -3.14280052e-18)
(-2.09605604e-17 2.15023189e-05 -3.95234128e-18)
(-2.62321768e-17 2.69080899e-05 -4.93516545e-18)
(-3.2612421e-17 3.34510356e-05 -6.11831111e-18)
(-4.02304436e-17 4.12637227e-05 -7.52165958e-18)
(-4.91860385e-17 5.04485582e-05 -9.15798258e-18)
(-5.95733912e-17 6.11021357e-05 -1.103716e-17)
(-7.13882633e-17 7.32200581e-05 -1.31492298e-17)
(-8.45258484e-17 8.6694761e-05 -1.54647803e-17)
(-9.87471979e-17 0.0001012811 -1.79304865e-17)
(-1.13652639e-16 0.0001165691 -2.04670697e-17)
(-1.28663177e-16 0.000131964885 -2.29698455e-17)
(-1.43032082e-16 0.000146702552 -2.53149019e-17)
(-1.55898886e-16 0.000159899557 -2.73712364e-17)
(-1.66394502e-16 0.000170664513 -2.90177023e-17)
(-1.69535637e-19 1.74312263e-07 -3.22261808e-20)
(-5.12858202e-19 5.27289532e-07 -9.74834173e-20)
(-8.79768256e-19 9.04458408e-07 -1.67213667e-19)
(-1.30055423e-18 1.33689814e-06 -2.47163542e-19)
(-1.80752164e-18 1.85774322e-06 -3.43455965e-19)
(-2.43719305e-18 2.50443233e-06 -4.63002775e-19)
(-3.23250802e-18 3.32096204e-06 -6.13913948e-19)
(-4.24509963e-18 4.36022338e-06 -8.05915896e-19)
(-5.53768568e-18 5.68646192e-06 -1.05078269e-18)
(-7.18656278e-18 7.37785006e-06 -1.36277303e-18)
(-9.28412463e-18 9.52908991e-06 -1.75905072e-18)
(-1.19412411e-17 1.2253875e-05 -2.26004712e-18)
(-1.52891966e-17 1.56868946e-05 -2.88969437e-18)
(-1.9480785e-17 1.998496e-05 -3.67543486e-18)
(-2.46894343e-17 2.53260923e-05 -4.64777383e-18)
(-3.11043966e-17 3.19045576e-05 -5.83898702e-18)
(-3.89323017e-17 3.9932419e-05 -7.28290025e-18)
(-4.83548132e-17 4.95960778e-05 -9.00643377e-18)
(-5.95760417e-17 6.11048868e-05 -1.10376121e-17)
(-7.27199687e-17 7.45859575e-05 -1.33863915e-17)
(-8.78446413e-17 9.00987462e-05 -1.60469008e-17)
(-1.04870783e-16 0.000107561863 -1.89855447e-17)
(-1.23540333e-16 0.000126710572 -2.21360475e-17)
(-1.43377313e-16 0.000147056649 -2.53971869e-17)
(-1.63634582e-16 0.000167833774 -2.86309925e-17)
(-1.83289576e-16 0.000187993146 -3.16710771e-17)
(-2.01100748e-16 0.000206261366 -3.43398374e-17)
(-2.15755834e-16 0.000221292499 -3.64735203e-17)
(-1.88023506e-19 1.93313109e-07 -3.57387465e-20)
(-5.68994815e-19 5.849799e-07 -1.08148163e-19)
(-9.77020224e-19 1.00438879e-06 -1.85686518e-19)
(-1.44670854e-18 1.48704731e-06 -2.74918378e-19)
(-2.01517793e-18 2.07102083e-06 -3.82875975e-19)
(-2.72471013e-18 2.79964661e-06 -5.17556255e-19)
(-3.62544931e-18 3.7242998e-06 -6.88421759e-19)
(-4.77825795e-18 4.90732638e-06 -9.06923581e-19)
(-6.25780039e-18 6.42521697e-06 -1.18705494e-18)
(-8.1558714e-18 8.37203973e-06 -1.54593115e-18)
(-1.05849127e-17 1.08630715e-05 -2.00437367e-18)
(-1.36815544e-17 1.40384536e-05 -2.58745056e-18)
(-1.76098601e-17 1.80665336e-05 -3.32488843e-18)
(-2.25637348e-17 2.31463288e-05 -4.25122097e-18)
(-2.87675834e-17 2.95081752e-05 -5.40546166e-18)
(-3.64741026e-17 3.74114173e-05 -6.83004541e-18)
(-4.59587805e-17 4.71387233e-05 -8.56892387e-18)
(-5.75029473e-17 5.89786744e-05 -1.06632922e-17)
(-7.13830689e-17 7.32147872e-05 -1.31483021e-17)
(-8.7848337e-17 9.01025593e-05 -1.60474394e-17)
(-1.07017407e-16 0.000109763597 -1.93537338e-17)
(-1.28889188e-16 0.000132196714 -2.30315237e-17)
(-1.53214142e-16 0.00015714593 -2.69975658e-17)
(-1.79479908e-16 0.000184085728 -3.11256871e-17)
(-2.06765435e-16 0.000212071426 -3.52357622e-17)
(-2.33708236e-16 0.000239705583 -3.91072473e-17)
(-2.58530528e-16 0.00026516481 -4.25033207e-17)
(-2.79217099e-16 0.000286382186 -4.52074348e-17)
(-2.06550315e-19 2.12353147e-07 -3.92583706e-20)
(-6.25280609e-19 6.42820777e-07 -1.18840111e-19)
(-1.07466173e-18 1.10471367e-06 -2.04230997e-19)
(-1.59376759e-18 1.63811547e-06 -3.02840525e-19)
(-2.22472509e-18 2.28622291e-06 -4.2264657e-19)
(-3.01586334e-18 3.09856683e-06 -5.72784217e-19)
(-4.02496556e-18 4.13434649e-06 -7.64147869e-19)
(-5.3227802e-18 5.46603713e-06 -1.01003197e-18)
(-6.99690546e-18 7.18338954e-06 -1.3268251e-18)
(-9.15610818e-18 9.39788381e-06 -1.73475802e-18)