/*--------------------------------*- C++ -*----------------------------------*\
| =========                 |                                                 |
| \\      /  F ield         | foam-extend: Open Source CFD                    |
|  \\    /   O peration     | Version:     4.1                                |
|   \\  /    A nd           | Web:         http://www.foam-extend.org         |
|    \\/     M anipulation  |                                                 |
\*---------------------------------------------------------------------------*/
FoamFile
{
    version     2.0;
    format      ascii;
    class       surfaceScalarField;
    location    "0.7";
    object      meshPhi;
}
// * * * * * * * * * * * * * * * * * * * * * * * * * * * * * * * * * * * * * //

dimensions      [0 3 -1 0 0 0 0];

internalField   nonuniform List<scalar> 
102656
(
0
2.60164023e-13
0
-1.21586845e-28
7.85839374e-13
-9.08809337e-29
-1.86519216e-28
1.33208288e-12
-5.78242308e-21
2.31296843e-20
1.92076787e-12
0
0
2.57578177e-12
1.15648673e-20
2.31297097e-20
3.32093924e-12
-5.78244026e-21
4.6259453e-20
4.18020142e-12
-5.7824472e-21
0
5.17771326e-12
1.1564912e-20
3.22020186e-27
6.33762964e-12
-5.78246632e-21
-9.25191623e-20
7.68370248e-12
-5.78247795e-21
4.65877844e-27
9.23860799e-12
0
-9.25194129e-20
1.1023001e-11
-5.7825068e-21
0
1.30542991e-11
1.15650472e-20
9.25197295e-20
1.53452196e-11
0
1.78074311e-26
1.79021208e-11
0
0
2.0723232e-11
5.78259059e-21
-9.25203168e-20
2.37968917e-11
5.78261714e-21
2.66501404e-26
2.7099952e-11
0
9.25208236e-20
3.05965329e-11
0
3.33869671e-26
3.42373294e-11
0
-9.25213013e-20
3.79596671e-11
-5.7827395e-21
9.25216351e-20
4.16884755e-11
0
0
4.53382829e-11
-1.15656013e-20
4.67221857e-26
4.88162527e-11
0
0
5.20261685e-11
0
-1.85044835e-19
5.48731565e-11
0
1.85045236e-19
5.72688342e-11
1.15657995e-20
5.91365045e-11
5.78291565e-21
1.85045455e-19
-5.78241385e-21
5.25755383e-13
0
1.15648323e-20
1.58793185e-12
-5.78241851e-21
2.31296748e-20
2.69154121e-12
5.78242316e-21
0
3.8811959e-12
0
2.31296986e-20
5.20568865e-12
0
6.93891342e-20
6.71368412e-12
5.78244049e-21
-4.62594545e-20
8.45420563e-12
5.78244849e-21
-4.62594948e-20
1.04767447e-11
-1.15649141e-20
-4.62595359e-20
1.28309337e-11
-7.50939137e-28
9.25191855e-20
1.5565727e-11
-5.78247966e-21
-1.85038592e-19
1.8728043e-11
5.78249245e-21
-9.25194256e-20
2.23608412e-11
0
-9.2519592e-20
2.65006321e-11
5.78252617e-21
-9.25197664e-20
3.11744658e-11
-1.83062433e-27
1.85039902e-19
3.63964982e-11
-5.78257134e-21
0
4.21643058e-11
2.47962226e-27
9.25204051e-20
4.84551927e-11
-5.78262459e-21
0
5.52228147e-11
5.78265127e-21
6.23254715e-26
6.2394504e-11
-5.78268628e-21
9.25212176e-20
6.98697197e-11
5.78271529e-21
0
7.75200441e-11
1.15655021e-20
1.85043414e-19
8.51910855e-11
5.78278239e-21
9.25219452e-20
9.27065233e-11
1.15656362e-20
-9.25221892e-20
9.98743498e-11
-5.90477865e-27
-1.85044925e-19
1.06495124e-10
-1.15657581e-20
1.85045205e-19
1.12371802e-10
5.78290174e-21
-1.85045518e-19
1.17320477e-10
0
1.21181188e-10
5.78294768e-21
1.85045749e-19
-5.78241398e-21
8.06654119e-13
5.78241398e-21
-1.1564833e-20
2.43627039e-12
-5.78241881e-21
1.1564838e-20
4.12981138e-12
1.15648478e-20
2.3129688e-20
5.95689994e-12
5.78242927e-21
2.3129701e-20
7.99385053e-12
5.78243534e-21
-4.62594313e-20
1.03169136e-11
5.7824427e-21
0
1.30031288e-11
-5.78245087e-21
0
1.61305788e-11
0
0
1.97779497e-11
-5.78247158e-21
-4.6259613e-20
2.4023311e-11
-9.78104642e-28
-4.6259673e-20
2.8942032e-11
-5.78249981e-21
-6.16578406e-27
3.46037834e-11
5.78251592e-21
0
4.10686117e-11
-5.78253742e-21
-9.25198713e-20
4.83821416e-11
-5.78256023e-21
1.85040135e-19
5.65700525e-11
-2.33303588e-27
-2.331153e-26
6.56320861e-11
-5.78261432e-21
-9.25205872e-20
7.55359693e-11
5.7826424e-21
3.05431076e-26
8.6211767e-11
5.78267573e-21
3.45026162e-26
9.75472917e-11
-4.06535774e-27
3.86158472e-26
1.09385274e-10
0
1.85043524e-19
1.21523001e-10
-5.0888641e-27
-4.69813935e-26
1.3371505e-10
5.78282526e-21
2.77567197e-19
1.45679556e-10
0
-5.48653433e-26
1.57108121e-10
0
0
1.67679134e-10
0
1.85046343e-19
1.7707377e-10
-7.48266819e-27
1.27690997e-25
1.84993567e-10
5.78298859e-21
1.91178143e-10
-1.1566033e-20
1.31349774e-25
1.15648285e-20
1.11483822e-12
-3.56409466e-29
1.15648339e-20
3.36729947e-12
1.1564839e-20
-1.15648397e-20
5.70960531e-12
5.78242504e-21
0
8.24037978e-12
-5.7824313e-21
8.08440298e-28
1.10680094e-11
-5.78243778e-21
-2.31297215e-20
1.43011462e-11
-5.78244599e-21
9.25189711e-20
1.80500911e-11
5.78245459e-21
-4.62595303e-20
2.24273107e-11
5.78246524e-21
4.62595886e-20
2.75469587e-11
-1.15649574e-20
0
3.35232586e-11
5.78249254e-21
-9.25194455e-20
4.04676214e-11
0
1.8503925e-19
4.84844011e-11
0
0
5.76652428e-11
5.78255303e-21
-9.25200412e-20
6.80820764e-11
-5.78257948e-21
-9.25203178e-20
7.97789351e-11
1.15652215e-20
-9.25206033e-20
9.27629489e-11
-5.78264284e-21
9.25209164e-20
1.06995055e-10
5.78267975e-21
-9.2521219e-20
1.22381181e-10
-5.78271992e-21
-9.25215335e-20
1.38764839e-10
-5.78276775e-21
-1.8504389e-19
1.55922217e-10
0
0
1.7356089e-10
-1.15657226e-20
0
1.9132318e-10
5.7829028e-21
9.25231375e-20
2.08794907e-10
-5.78295708e-21
0
2.25519838e-10
-5.78300288e-21
-1.85047499e-19
2.41019505e-10
5.78304551e-21
1.85048207e-19
2.5481736e-10
-5.78308359e-21
0
2.66465553e-10
0
2.75572063e-10
0
0
0
1.46218477e-12
0
0
4.4171575e-12
5.78242053e-21
2.31296834e-20
7.4931549e-12
1.15648538e-20
2.31296975e-20
1.08236036e-11
0
-4.6259428e-20
1.45555631e-11
-5.78244171e-21
-4.62594677e-20
1.88371285e-11
-5.78245024e-21
0
2.38195858e-11
5.78246142e-21
0
2.96583842e-11
-5.78247404e-21
-4.62596304e-20
3.65127302e-11
1.1564977e-20
-4.62597007e-20
4.4543599e-11
-5.78250677e-21
6.82378181e-27
5.39099627e-11
0
8.2370049e-27
6.47630619e-11
-5.78255032e-21
0
7.72386143e-11
-5.78257841e-21
2.34897494e-26
9.14469777e-11
5.78261074e-21
0
1.07461462e-10
0
-3.24820961e-26
1.25305227e-10
-5.782689e-21
0
1.44937505e-10
1.15654745e-20
9.25217874e-20
1.66240186e-10
-5.07221631e-27
-9.25222378e-20
1.89006153e-10
-5.7828458e-21
9.25227112e-20
2.12930966e-10
1.15657955e-20
-9.25231364e-20
2.37609656e-10
5.7829578e-21
-9.25236207e-20
2.62540252e-10
-5.7830272e-21
1.85048495e-19
2.87135352e-10
-9.05993384e-27
9.25247116e-20
3.10742341e-10
-5.78314835e-21
0
3.32671948e-10
-1.15664079e-20
0
3.52233694e-10
-5.78325383e-21
1.85051629e-19
3.68775675e-10
0
3.81725178e-10
5.78331713e-21
0
-1.15648301e-20
1.86061819e-12
-4.60781187e-29
1.15648369e-20
5.62215285e-12
5.78242186e-21
0
9.54310303e-12
-5.78242929e-21
-2.31297062e-20
1.379946e-11
-5.78243763e-21
-2.31297247e-20
1.85858023e-11
-5.7824464e-21
-1.3712552e-27
2.40991778e-11
6.08546713e-28
4.62595524e-20
3.05423857e-11
0
-9.25192318e-20
3.81256818e-11
5.78248276e-21
5.40783025e-27
4.70666369e-11
-1.15650055e-20
6.66052003e-27
5.75878433e-11
1.50854379e-27
-4.62598848e-20
6.99121666e-11
0
-1.38780084e-19
8.4255251e-11
0
-9.2520343e-20
1.00815054e-10
0
2.85401822e-26
1.19758343e-10
0
0
1.41204321e-10
-3.90230207e-27
9.25215696e-20
1.65205903e-10
5.7827564e-21
-9.25221183e-20
1.91729575e-10
0
5.40028364e-26
2.20635271e-10
1.15657509e-20
9.25231524e-20
2.51658218e-10
-5.78295316e-21
7.03084615e-26
2.84395113e-10
5.78302112e-21
7.89936859e-26
3.18297308e-10
5.78310917e-21
0
3.52673618e-10
5.78318045e-21
1.85051594e-19
3.86704931e-10
-5.783261e-21
-9.25264165e-20
4.19471854e-10
5.78333919e-21
-1.85053973e-19
4.49995216e-10
-5.78342611e-21
1.85054973e-19
4.77287493e-10
-1.15669715e-20
-1.85055796e-19
5.00411391e-10
-5.78353472e-21
5.18540264e-10
-1.58224227e-26
-1.8505615e-19
0
2.32217319e-12
0
0
7.01898172e-12
5.78242349e-21
-1.15648481e-20
1.19229525e-11
-5.78243214e-21
4.62594303e-20
1.72625542e-11
-4.00500719e-28
-2.31297367e-20
2.32912286e-11
0
9.25190649e-20
3.02672908e-11
5.78246344e-21
-4.62595951e-20
3.8458818e-11
0
-4.62596735e-20
4.81465066e-11
5.78249814e-21
6.45026886e-27
5.96240975e-11
0
4.62598895e-20
7.31959201e-11
-1.1565091e-20
1.96560268e-26
8.91711257e-11
0
-4.62601896e-20
1.07854127e-10
-5.78261275e-21
-9.25207323e-20
1.29530822e-10
-5.78265971e-21
0
1.54450358e-10
5.78270736e-21
-4.19031765e-26
1.82802515e-10
-5.78277109e-21
0
2.14691256e-10
-5.7828393e-21
9.25228889e-20
2.50105599e-10
5.78290944e-21
-1.85047193e-19
2.88889711e-10
0
9.25244424e-20
3.30714919e-10
-5.78309509e-21
9.25252708e-20
3.75057106e-10
-5.78319548e-21
9.25261345e-20
4.21183509e-10
-5.78330124e-21
9.25269013e-20
4.68153075e-10
-5.7834102e-21
9.25277613e-20
5.14834011e-10
1.15670097e-20
9.25287224e-20
5.5994089e-10
5.78361017e-21
-1.85058991e-19
6.02091556e-10
-5.78372702e-21
0
6.39881336e-10
5.78379905e-21
1.85061473e-19
6.71969092e-10
-5.78387558e-21
6.97167008e-10
0
0
0
2.8589487e-12
5.78241616e-21
-2.3129684e-20
8.64462966e-12
0
-2.31297038e-20
1.46969956e-11
-5.78243555e-21
-2.31297269e-20
2.1309242e-11
5.78244608e-21
-2.31297524e-20
2.88078087e-11
-1.15649178e-20
-1.38778723e-19
3.75278122e-11
5.7824743e-21
9.25193069e-20
4.78201422e-11
5.78249028e-21
9.25194989e-20
6.00561043e-11
0
7.7262876e-27
7.46288946e-11
0
0
9.19512334e-11
-5.78257362e-21
0
1.12448636e-10
0
9.25207434e-20
1.36547539e-10
-3.31834235e-27
-9.2521255e-20
1.64657505e-10
0
9.25217768e-20
1.97146967e-10
-5.7827806e-21
-5.20320385e-26
2.34312367e-10
5.78285683e-21
-6.20432471e-26
2.76341186e-10
-5.78294453e-21
0
3.23270207e-10
-5.78303568e-21
8.5889219e-26
3.74941444e-10
5.78314567e-21
-9.25259333e-20
4.30959405e-10
-5.78327842e-21
1.85054265e-19
4.90654658e-10
-1.33686525e-26
9.25284161e-20
5.53059726e-10
5.78353684e-21
0
6.1690382e-10
-1.1567379e-20
-9.2530324e-20
6.80632457e-10
0
-9.25316064e-20
7.42456304e-10
-5.78399025e-21
-1.85065293e-19
8.00430492e-10
0
1.85067537e-19
8.52561389e-10
5.78422665e-21
0
8.96932973e-10
-2.6016675e-26
9.31840484e-10
0
-1.85070225e-19
-5.78241698e-21
3.48290815e-12
-5.78241698e-21
0
1.05358761e-11
5.78242771e-21
1.15648567e-20
1.79296528e-11
0
0
2.60368032e-11
1.15649038e-20
2.31297743e-20
3.52740014e-11
5.7824667e-21
2.31298114e-20
4.60724432e-11
5.7824854e-21
-4.62597173e-20
5.88877132e-11
0
0
7.42072692e-11
0
9.25244023e-27
9.25537466e-11
-1.15651329e-20
-4.62601473e-20
1.14483011e-10
-5.78260887e-21
4.62603565e-20
1.40576734e-10
5.78265139e-21
4.6260626e-20
1.71428125e-10
-4.03387816e-27
9.252186e-20
2.07619415e-10
0
0
2.49690091e-10
1.15657255e-20
9.2523351e-20
2.98095323e-10
0
-9.25243814e-20
3.5315483e-10
-5.78307573e-21
9.25253873e-20
4.14993643e-10
5.7831835e-21
-9.25266002e-20
4.83477752e-10
-5.78335018e-21
1.26716499e-25
5.58149461e-10
-5.78351157e-21
0
6.38169482e-10
5.78367037e-21
9.2530899e-20
7.22274675e-10
-1.95694096e-26
-9.2532657e-20
8.08761573e-10
-5.78407109e-21
1.85068294e-19
8.95505624e-10
0
-9.25355685e-20
9.8002393e-10
5.7844391e-21
0
1.05958484e-09
5.78462337e-21
0
1.13136117e-09
0
0
1.1926159e-09
5.78493517e-21
1.24090162e-09
0
-1.85080157e-19
-5.78241774e-21
4.20542147e-12
5.78241774e-21
1.15648479e-20
1.27282467e-11
0
-2.31297258e-20
2.16841805e-11
0
2.31297576e-20
3.15416866e-11
0
-6.93893843e-20
4.28283677e-11
-1.15649528e-20
4.62596832e-20
5.6095352e-11
-5.78249817e-21
9.2519595e-20
7.19295884e-11
0
1.85039754e-19
9.09664864e-11
1.73476653e-20
-9.25202246e-20
1.13896341e-10
0
0
1.41462846e-10
-5.78264473e-21
-1.38781733e-19
1.74455741e-10
0
-1.38782696e-19
2.13694459e-10
5.78277202e-21
0
2.60000292e-10
5.78286439e-21
-9.25234984e-20
3.1415555e-10
5.78296147e-21
1.85048975e-19
3.76848287e-10
-9.10764102e-27
0
4.48602411e-10
5.78322592e-21
0
5.29694492e-10
-5.78340354e-21
-9.25287015e-20
6.20060734e-10
0
9.25307807e-20
7.192002e-10
-1.86252332e-26
-1.86805642e-25
8.26083962e-10
5.78401526e-21
-9.25344052e-20
9.39083265e-10
-5.78428698e-21
2.42986836e-25
1.05593228e-09
1.15690421e-20
-9.25386477e-20
1.17374154e-09
5.78478622e-21
9.25410256e-20
1.28907587e-09
-5.78508499e-21
1.85085343e-19
1.39810408e-09
5.78530074e-21
0
1.49681815e-09
5.78553065e-21
1.85091688e-19
1.58130631e-09
5.78572893e-21
1.64805162e-09
-5.78593355e-21
1.85093849e-19
0
5.03562419e-12
9.60114756e-29
-3.9204453e-28
1.52534364e-11
-5.78243311e-21
3.46946052e-20
2.60208785e-11
1.73473461e-20
0
3.79168865e-11
5.78246519e-21
-2.31298183e-20
5.16054845e-11
-5.78248741e-21
-2.31298731e-20
6.7788189e-11
-5.7825126e-21
0
8.72143013e-11
5.78254188e-21
-9.25201103e-20
1.10705971e-10
0
1.31094908e-26
1.39169897e-10
-5.78262999e-21
-4.62604848e-20
1.73594118e-10
5.78268556e-21
4.62608573e-20
2.15043112e-10
5.78275771e-21
1.38783754e-19
2.64640547e-10
-5.78285789e-21
0
3.23535606e-10
5.78295355e-21
9.25245208e-20
3.92851679e-10
0
-9.25259583e-20
4.73613957e-10
-1.15664856e-20
-1.19845353e-25
5.6665511e-10
5.78340526e-21
-9.25293849e-20
6.72499846e-10
-5.78364673e-21
1.72332922e-25
7.91232048e-10
-5.78389215e-21
9.25338118e-20
9.22351485e-10
-2.34940869e-26
4.75664295e-25
1.06463312e-09
5.78444748e-21
2.74581435e-25
1.21600794e-09
5.78477503e-21
9.25416854e-20
1.37348893e-09
5.78508509e-21
-1.85089837e-19
1.53316812e-09
5.78547914e-21
9.25473937e-20
1.69030813e-09
-5.78583591e-21
3.70201077e-19
1.83954387e-09
-5.10517314e-26
3.70210664e-19
1.97519445e-09
5.78649421e-21
3.70218661e-19
2.09166492e-09
1.15735932e-20
2.18389487e-09
-6.19693247e-26
1.85112844e-19
-1.15648396e-20
5.98879626e-12
-1.10232671e-28
-4.49084629e-28
1.81482061e-11
5.78243626e-21
-1.15648748e-20
3.0988996e-11
-5.78245393e-21
0
4.52354123e-11
-5.78247396e-21
-6.93895377e-20
6.17243542e-11
-5.78249901e-21
-2.31299095e-20
8.1332993e-11
0
-4.62599888e-20
1.05001856e-10
0
-9.2520373e-20
1.33790791e-10
0
4.62604475e-20
1.68887226e-10
5.78266498e-21
1.97033376e-26
2.11592867e-10
5.78273564e-21
9.2522294e-20
2.63330905e-10
1.15656469e-20
-4.6261613e-20
3.25630457e-10
5.78292479e-21
0
4.00085721e-10
0
9.25258062e-20
4.88294006e-10
0
-1.85055232e-19
5.91762149e-10
-5.78343341e-21
9.25294909e-20
7.117811e-10
-5.78366683e-21
-2.77595809e-19
8.49267791e-10
5.78392014e-21
2.15470378e-25
1.00457832e-09
-1.15684894e-20
2.56276064e-25
1.17729834e-09
5.78461693e-21
-9.25411307e-20
1.36602796e-09
-5.78501872e-21
3.50247847e-25
1.56818814e-09
-5.78545801e-21
1.85096865e-19
1.77988378e-09
-5.78592693e-21
9.2552574e-20
1.99586456e-09
-5.35100252e-26
9.25559615e-20
2.20962301e-09
5.78690354e-21
1.85119202e-19
2.41366021e-09
-6.63955395e-26
-1.85126943e-19
2.59992667e-09
-1.15755581e-20
0
2.76041333e-09
-5.78811849e-21
2.8878278e-09
-8.14085987e-26
-3.70272028e-19
5.78242094e-21
7.07151106e-12
0
1.15648607e-20
2.14331618e-11
0
1.15648818e-20
3.66312539e-11
-5.78246033e-21
0
5.35717381e-11
0
2.31298768e-20
7.32890311e-11
5.78251016e-21
2.31299486e-20
9.68657343e-11
-5.7825458e-21
0
1.25495304e-10
-1.1565175e-20
4.62603246e-20
1.60545937e-10
0
-4.62606067e-20
2.03537272e-10
5.78271109e-21
4.62610247e-20
2.5615896e-10
-5.1539898e-27
-1.38784446e-19
3.2030957e-10
-5.78290422e-21
4.62620562e-20
3.98054564e-10
0
-9.2525644e-20
4.91584448e-10
-5.78321345e-21
9.25273022e-20
6.0314782e-10
-1.32826405e-26
9.25295636e-20
7.34930508e-10
0
1.85064238e-19
8.88891971e-10
0
0
1.06655122e-09
0
2.67662952e-25
1.2687302e-09
-1.15693931e-20
0
1.49525103e-09
5.7850884e-21
-9.25466169e-20
1.74461131e-09
1.15713727e-20
9.25518287e-20
2.01367541e-09
-5.1519816e-26
9.25569683e-20
2.29743324e-09
-5.78694808e-21
1.8512396e-19
2.58888954e-09
-5.78754094e-21
-9.25675534e-20
2.87914992e-09
5.78812508e-21
0
3.15775919e-09
-5.78884738e-21
1.85154281e-19
3.41331826e-09
-1.15787991e-20
0
3.63435199e-09
0
3.81033316e-09
1.15806736e-20
0
-5.78242191e-21
8.28321222e-12
0
-1.15648659e-20
2.51172096e-11
0
-3.46946695e-20
4.2978214e-11
-7.34014738e-28
-2.31298374e-20
6.29737473e-11
0
2.31299072e-20
8.63643472e-11
5.78252305e-21
6.93899753e-20
1.14496559e-10
5.7825619e-21
-4.62602003e-20
1.48883379e-10
-5.78261371e-21
0
1.9124374e-10
0
4.62608546e-20
2.43513449e-10
-4.62317414e-27
4.62613103e-20
3.07910554e-10
0
9.2523696e-20
3.86915654e-10
1.15659673e-20
-9.25251074e-20
4.83264311e-10
0
0
5.99957124e-10
5.78333635e-21
-9.25291561e-20
7.40129398e-10
-5.78361225e-21
-9.25318165e-20
9.06910725e-10
0
1.85069596e-19
1.10322021e-09
5.78424077e-21
0
1.33147595e-09
0
9.25435968e-20
1.59325856e-09
0
3.98374699e-25
1.88887771e-09
-5.78581644e-21
-9.25536747e-20
2.21688832e-09
1.15728841e-20
-9.25593894e-20
2.57360756e-09
5.78718995e-21
9.25673417e-20
2.95270411e-09
-5.78807918e-21
9.25744569e-20
3.34495655e-09
0
-9.25807598e-20
3.73828621e-09
-5.78974276e-21
1.85175068e-19
4.11816575e-09
0
0
4.46846785e-09
1.15829523e-20
1.8519997e-19
4.77273581e-09
-5.79225691e-21
5.01574042e-09
0
0
-1.555479e-28
9.62822109e-12
5.78242289e-21
1.156487e-20
2.9210322e-11
-5.78244742e-21
2.31297934e-20
5.00393101e-11
5.78247177e-21
4.62597133e-20
7.34547218e-11
5.78250093e-21
4.62598774e-20
1.00990797e-10
-5.78253797e-21
2.3130039e-20
1.34313158e-10
0
-4.62603338e-20
1.75298354e-10
-1.15652767e-20
-1.830408e-26
2.26084803e-10
5.78270873e-21
0
2.89147126e-10
-5.78280611e-21
4.62616155e-20
3.67337223e-10
5.78291856e-21
4.62622542e-20
4.63878508e-10
5.78306825e-21
9.25262532e-20
5.82432293e-10
0
0
7.27002543e-10
5.78348107e-21
0
9.01856471e-10
-1.15676023e-20
-9.25343758e-20
1.11146437e-09
5.78415735e-21
0
1.36010635e-09
-2.97084277e-26
-1.850859e-19
1.65150124e-09
0
4.03259676e-25
1.98842178e-09
0
-9.25548036e-20
2.37206694e-09
5.7865351e-21
0
2.80135113e-09
1.15747984e-20
-9.25703789e-20
3.27216396e-09
0
9.25801143e-20
3.77669039e-09
1.15788856e-20
9.25905709e-20
4.30294116e-09
5.79069687e-21
1.85197443e-19
4.83465213e-09
0
0
5.35173124e-09
-1.42659668e-25
-1.85234321e-19
5.83139571e-09
5.79404109e-21
0
6.25002042e-09
0
6.58551505e-09
-1.15917935e-20
1.85256937e-19
-1.15648487e-20
1.11036472e-11
0
0
3.37037236e-11
5.78244988e-21
3.46947144e-20
5.78033612e-11
0
0
8.5010006e-11
-1.15650229e-20
2.31299704e-20
1.17174569e-10
0
-2.31300716e-20
1.56325518e-10
-2.54569044e-27
0
2.04765499e-10
-5.78266629e-21
-4.62608313e-20
2.65158941e-10
-4.51885498e-27
0
3.40620132e-10
5.78284474e-21
4.62619351e-20
4.34758501e-10
0
4.59779856e-26
5.51767514e-10
-1.01642081e-26
-4.62637428e-20
6.96438929e-10
1.15667822e-20
-9.25300398e-20
8.74076085e-10
1.15673505e-20
0
1.09054218e-09
0
-9.25369738e-20
1.35204932e-09
1.15689297e-20
-3.14394066e-25
1.66467703e-09
-3.5223061e-26
0
2.03402845e-09
-1.15713965e-20
9.25550747e-20
2.46471039e-09
0
5.98957262e-25
2.95943258e-09
5.78742391e-21
-1.85145196e-19
3.51799165e-09
0
-9.25820262e-20
4.13616719e-09
0
1.85191285e-19
4.80461903e-09
5.79106392e-21
-9.26058849e-20
5.5080423e-09
0
-1.3727945e-24
6.22478501e-09
0
0
6.92723673e-09
-1.82204423e-25
0
7.58328649e-09
0
1.85307669e-19
8.15897974e-09
-2.20767769e-25
8.62216047e-09
5.80002515e-21
0
0
1.27010783e-11
-5.78242539e-21
0
3.85722741e-11
-5.63039256e-28
0
6.62291978e-11
1.15649668e-20
0
9.75825245e-11
0
4.74195284e-27
1.34843182e-10
-5.78256428e-21
-4.62602396e-20
1.80454987e-10
-5.78262014e-21
0
2.37218679e-10
-5.78269213e-21
-4.62609997e-20
3.08411374e-10
-5.78278554e-21
-4.62615181e-20
3.97902084e-10
-6.62455644e-27
3.96832518e-26
5.10254737e-10
-8.73100622e-27
4.62630754e-20
6.50828619e-10
-5.78325692e-21
1.38792934e-19
8.25785362e-10
5.78351544e-21
0
1.0421463e-09
0
-9.25353051e-20
1.30787646e-09
-2.51343249e-26
-9.25403142e-20
1.63149085e-09
-5.78482878e-21
0
2.02141295e-09
-5.78549729e-21
-4.66409113e-25
2.48582681e-09
1.15725866e-20
-9.25616427e-20
3.03213216e-09
-5.78738493e-21
9.25726478e-20
3.66547256e-09
0
0
4.387372e-09
0
-9.25966005e-20
5.1941555e-09
0
0
6.07516278e-09
5.79339974e-21
-2.77888343e-19
7.01133868e-09
5.7954126e-21
-9.26483074e-20
7.97430611e-09
0
-1.85327077e-19
8.92646662e-09
1.15991719e-20
-1.85363092e-19
9.82272306e-09
-5.80177899e-21
0
1.06142159e-08
-5.80364533e-21
1.12539093e-08
5.80486755e-21
-1.85406931e-19
0
1.44059312e-11
5.78242612e-21
1.15648828e-20
4.377198e-11
-6.01336814e-28
-1.15649173e-20
7.52424341e-11
5.78248946e-21
-2.3129918e-20
1.11065253e-10
-1.5592537e-27
5.11008873e-27
1.53854148e-10
0
-4.62603245e-20
2.06522261e-10
-3.01463419e-27
4.62606713e-20
2.72440598e-10
-4.07335261e-27
0
3.55595551e-10
-5.45676671e-27
9.25235144e-20
4.6074619e-10
-1.15659101e-20
-4.62625328e-20
5.93577131e-10
0
4.62636211e-20
7.60839772e-10
0
4.62649756e-20
9.70455925e-10
0
9.25332407e-20
1.23159028e-09
0
-1.85075534e-19
1.55472733e-09
5.78451833e-21
-9.2543529e-20
1.95125249e-09
-5.78517749e-21
9.25501695e-20
2.43296534e-09
0
-5.45473176e-25
3.0119362e-09
-6.08436197e-26
6.88821478e-25
3.69918444e-09
-5.78818082e-21
9.2583008e-20
4.50329471e-09
0
1.0661274e-24
5.42910233e-09
0
1.85230805e-19
6.47471597e-09
5.79333824e-21
-9.26360949e-20
7.62877596e-09
-1.79672617e-25
9.26599067e-20
8.86838831e-09
-5.79847196e-21
0
1.01571833e-08
0
0
1.14446378e-08
-5.80418965e-21
0
1.26677765e-08
-3.29025404e-25
1.85484988e-19
1.37562144e-08
0
1.46406807e-08
-3.9167412e-25
1.85514106e-19
-1.15648539e-20
1.61969709e-11
5.78242706e-21
1.15648858e-20
4.92384322e-11
-6.32185533e-28
1.15649223e-20
8.47327427e-11
-1.09753742e-27
-2.31299373e-20
1.25296288e-10
5.78253292e-21
-2.3130046e-20
1.73985469e-10
5.78258325e-21
-2.31301921e-20
2.34234474e-10
0
9.2521556e-20
3.10054821e-10
-4.35001837e-27
-2.68547411e-26
4.06239063e-10
-5.85683261e-27
-4.62619413e-20
5.28571145e-10
-5.78299816e-21
-4.626282e-20
6.84040963e-10
5.78318357e-21
4.62640364e-20
8.81054614e-10
-1.39026339e-26
-4.62655636e-20
1.12962252e-09
-1.15675584e-20
2.20744925e-25
1.44150485e-09
-2.4276248e-26
-9.254021e-20
1.83027536e-09
-5.78479506e-21
1.85093119e-19
2.31100315e-09
-5.78552329e-21
-4.87805819e-25
2.90009144e-09
-5.40223074e-26
-9.25648721e-20
3.61458579e-09
-6.96953603e-26
8.00122837e-25
4.47062013e-09
1.15779884e-20
-9.25932141e-20
5.48234181e-09
0
1.26532692e-24
6.65956058e-09
-5.79291073e-21
1.8527111e-19
8.00386021e-09
-5.79563613e-21
0
9.50482565e-09
-1.15970556e-20
-9.26897973e-20
1.11364297e-08
-2.62294978e-25
1.85438276e-19
1.28535981e-08
-1.16111506e-20
1.85497547e-19
1.45897993e-08
-5.80997596e-21
0
1.62579152e-08
0
-1.85609541e-19
1.77565087e-08
-4.62626968e-25
1.89825793e-08
1.16394224e-20
0
5.78242735e-21
1.80461471e-11
0
-8.78608197e-28
5.48862323e-11
-5.78246039e-21
0
9.45526332e-11
1.15649917e-20
0
1.40056281e-10
-1.15650783e-20
5.64657581e-27
1.94930555e-10
0
0
2.6317655e-10
0
-1.38782551e-19
3.4951028e-10
5.78274817e-21
-2.83683186e-26
4.59621099e-10
-5.78287322e-21
-4.62621444e-20
6.0044657e-10
1.15660581e-20
-4.6263011e-20
7.80463595e-10
-1.11511069e-26
6.82084178e-26
1.00998813e-09
-1.49109332e-26
4.62659919e-20
1.30146522e-09
-5.78389806e-21
9.25363495e-20
1.66971695e-09
-5.78438563e-21
9.25426682e-20
2.13209029e-09
-3.49043636e-26
0
2.70840275e-09
-5.78584883e-21
0
3.42070576e-09
-1.15737685e-20
0
4.29234356e-09
5.7881949e-21
9.2587775e-20
5.34686122e-09
-1.15799794e-20
0
6.6065921e-09
-5.79213451e-21
1.47743017e-24
8.08884177e-09
1.65293842e-25
9.26586668e-20
9.80129369e-09
0
1.85373946e-19
1.17372028e-08
-1.1603436e-20
0
1.38696874e-08
0
3.3165496e-24
1.6145831e-08
0
-1.85610203e-19
1.84808081e-08
1.74472883e-20
-1.85701223e-19
2.07560155e-08
-5.8213132e-21
0
2.28255247e-08
-5.86222731e-25
2.45341426e-08
1.16602062e-20
3.71658873e-19
-5.78242777e-21
1.99188411e-11
5.78242755e-21
-1.15648897e-20
6.06096899e-11
-6.6190776e-28
-1.15649289e-20
1.04518439e-10
-5.78249771e-21
-4.1161653e-27
1.55069352e-10
0
-2.31300718e-20
2.16298452e-10
5.78259382e-21
2.31302399e-20
2.928098e-10
-5.78266435e-21
0
3.90076409e-10
-5.78276236e-21
4.62614593e-20
5.1476161e-10
-5.78288845e-21
4.62622999e-20
6.75069893e-10
-1.15661054e-20
4.62632912e-20
8.81130507e-10
-1.1566553e-20
1.38793925e-19
1.14540885e-09
0
-4.62664912e-20
1.48312865e-09
-5.783983e-21
0
1.91267073e-09
-5.7845412e-21
0
2.45588888e-09
5.78517483e-21
-1.8510452e-19
3.13825234e-09
-5.78607968e-21
-5.97699948e-25
3.98870264e-09
5.78725835e-21
9.2576422e-20
5.03899563e-09
-1.15776517e-20
1.02128741e-24
6.32243349e-09
-1.12823208e-25
-1.85233282e-19
7.87192891e-09
-1.46333966e-25
9.26450972e-20
9.71651859e-09
0
2.14555487e-24
1.18750965e-08
5.80010678e-21
0
1.43482086e-08
0
-2.78292673e-19
1.71123015e-08
-3.75002583e-25
-9.28194904e-20
2.01115227e-08
-4.58625225e-25
0
2.32435629e-08
5.82305129e-21
1.11289912e-23
2.63514445e-08
-8.45686268e-21
-1.85963927e-19
2.92268411e-08
-1.68848337e-20
3.1631919e-08
6.77361681e-22
0
0
2.17746025e-11
5.78242741e-21
-8.83455827e-28
6.62850334e-11
-6.5634346e-28
-2.3129855e-20
1.14414005e-10
5.78249481e-21
0
1.70008255e-10
5.78253898e-21
2.31300772e-20
2.3762043e-10
-2.46584904e-27
-2.31302336e-20
3.22479721e-10
1.15653328e-20
-4.62609011e-20
4.30851451e-10
-5.78276418e-21
-4.6261514e-20
5.70428533e-10
0
0
7.5076876e-10
5.78305759e-21
0
9.83786179e-10
0
4.62647431e-20
1.28429653e-09
-5.78359693e-21
0
1.67060424e-09
-5.78401158e-21
0
2.16509998e-09
-5.78459502e-21
0
2.79481123e-09
5.78530382e-21
-4.80021592e-25
3.5918119e-09
5.78628191e-21
9.25663565e-20
4.59334965e-09
5.78757099e-21
-9.25818574e-20
5.84147809e-09
-5.78935178e-21
9.2601921e-20
7.3819398e-09
5.79145203e-21
-9.26261326e-20
9.26193762e-09
-5.79443286e-21
1.89209979e-24
1.15268266e-08
0
-9.26980846e-20
1.42124246e-08
-5.80262576e-21
9.27469248e-20
1.73354982e-08
5.8079015e-21
0
2.08861443e-08
0
0
2.48136115e-08
0
0
2.90053063e-08
-2.59434522e-21
0
3.3266252e-08
-1.42532211e-20
0
3.73057055e-08
-2.92590712e-20
4.075237e-08
-5.85970737e-21
0
0
2.35684138e-11
5.78242688e-21
1.15648862e-20
7.1774253e-11
-6.34818528e-28
-2.31298499e-20
1.23997315e-10
5.7824933e-21
-2.3129944e-20
1.8450422e-10
-1.67643269e-27
5.61365759e-27
2.58363692e-10
-2.39892163e-27
2.31302281e-20
3.51434396e-10
-3.3485569e-27
0
4.70786396e-10
-1.15655092e-20
-2.92579525e-26
6.25167869e-10
-5.78288502e-21
0
8.25536949e-10
0
9.25266613e-20
1.08567356e-09
-1.17830959e-26
4.62648915e-20
1.42287846e-09
-1.60267549e-26
-4.62666874e-20
1.85875484e-09
0
0
2.42004987e-09
-5.78461677e-21
0
3.13950596e-09
5.78539287e-21
9.25550057e-20
4.05663187e-09
-5.78637792e-21
9.25674792e-20
5.2182466e-09
5.78774372e-21
9.25848606e-20
6.67857078e-09
-5.78965106e-21
-9.26056394e-20
8.49854906e-09
5.79193927e-21
1.56243223e-24
1.0743976e-08
-5.7952288e-21
-9.26702247e-20
1.34819277e-08
5.79932009e-21
9.27192688e-20
1.67734225e-08
0
9.27786394e-20
2.06651206e-08
1.16224154e-20
9.28524472e-20
2.51782049e-08
-8.44308641e-21
-1.85878257e-19
3.02859362e-08
-1.09950212e-20
1.86080721e-19
3.5886733e-08
-2.59067181e-20
-1.86332163e-19
4.17673471e-08
-2.34222575e-20
-1.86576184e-19
4.75459776e-08
-2.34809364e-20
5.26356653e-08
-1.17683064e-20
2.33971837e-23
-5.78242614e-21
2.5252463e-11
5.78242594e-21
-1.15648832e-20
7.69305364e-11
5.78245555e-21
1.15649189e-20
1.33010025e-10
1.15649769e-20
2.31299195e-20
1.98161463e-10
1.15650561e-20
2.31300378e-20
2.77952313e-10
-5.78258093e-21
-2.31301979e-20
3.78853926e-10
-5.78264867e-21
4.62607939e-20
5.08725717e-10
5.78273529e-21
-4.62613544e-20
6.77359282e-10
-6.03584471e-27
4.62621557e-20
8.97109162e-10
1.15660531e-20
4.62631562e-20
1.18363295e-09
5.78324762e-21
7.1509417e-26
1.55675735e-09
5.78355417e-21
-4.62664906e-20
2.04147685e-09
-5.78397096e-21
0
2.66907568e-09
0
1.85090843e-19
3.47833841e-09
0
-9.25552421e-20
4.51677578e-09
5.78633796e-21
9.25668764e-20
5.84173394e-09
5.78773165e-21
-8.95623302e-25
7.52117438e-09
5.78960127e-21
-2.77823688e-19
9.63380758e-09
0
-9.26361463e-20
1.22681418e-08
-1.76267077e-25
0
1.55198777e-08
0
0
1.94868956e-08
5.80525131e-21
2.78398497e-19
2.42619168e-08
-1.16266207e-20
-9.288158e-20
2.99218895e-08
-5.82373745e-21
-9.29935381e-20
3.65079425e-08
-1.16720851e-20
1.86302662e-19
4.39860686e-08
-1.17044485e-20
-3.73288207e-19
5.21855226e-08
-1.17432185e-20
1.87052748e-19
6.0674478e-08
-1.76855817e-20
6.85399692e-08
-2.3677079e-20
1.87423127e-19
5.78242459e-21
2.67783546e-11
0
0
8.16050696e-11
0
-1.16361145e-27
1.41189489e-10
1.15649627e-20
0
2.10575795e-10
5.78251745e-21
-4.62600064e-20
2.95794645e-10
-5.78256583e-21
1.34866774e-26
4.03890013e-10
-5.78262806e-21
0
5.4346395e-10
4.01741519e-27
-2.56982045e-26
7.25296514e-10
-5.54385607e-27
9.25238355e-20
9.63074709e-10
5.78298218e-21
4.62629216e-20
1.27426184e-09
0
4.62642707e-20
1.68113471e-09
5.78348745e-21
1.82436853e-25
2.21200932e-09
0
9.25372663e-20
2.9026636e-09
-1.15688368e-20
9.25437904e-20
3.79794619e-09
-5.7851758e-21
-1.85106483e-19
4.95352813e-09
-5.05096369e-26
-6.36221824e-25
6.43770633e-09
5.78742793e-21
0
8.33310397e-09
5.78933954e-21
1.17709594e-24
1.07380428e-08
-1.15839229e-20
-9.26364105e-20
1.37673146e-08
-5.79537705e-21
-9.26782089e-20
1.75520999e-08
0
9.27376129e-20
2.22389346e-08
5.80589422e-21
-9.28111884e-20
2.7987983e-08
-8.39556432e-21
1.85835899e-19
3.49706204e-08
-2.53575196e-21
1.8611614e-19
4.33649985e-08
-1.75239544e-20
0
5.33330917e-08
-1.17248766e-20
0
6.49202356e-08
-1.17843584e-20
1.87749756e-19
7.78152437e-08
-1.18583326e-20
9.06941612e-08
-1.79156293e-20
3.76865851e-19
0
2.80996221e-11
5.782423e-21
1.15648697e-20
8.56547879e-11
-5.78244658e-21
-1.15648976e-20
1.48282558e-10
0
-2.96787795e-27
2.21356157e-10
-5.78250351e-21
-2.3129957e-20
3.11315503e-10
5.78254217e-21
2.31300804e-20
4.25713224e-10
5.78259775e-21
-1.63134814e-26
5.738147e-10
-1.73480186e-20
0
7.67287885e-10
-5.78277477e-21
3.10773047e-26
1.02102376e-09
-1.1565819e-20
4.28133598e-26
1.35412759e-09
-5.78310243e-21
0
1.79111962e-09
5.78335023e-21
4.62653585e-20
2.36338107e-09
0
9.25352672e-20
3.1108746e-09
0
3.06536561e-25
4.08415709e-09
-5.78488694e-21
1.85099708e-19
5.34668292e-09
-5.78581177e-21
9.25612038e-20
6.97736909e-09
-5.78707879e-21
9.25770306e-20
9.07337005e-09
5.78864245e-21
1.08595838e-24
1.17530254e-08
0
9.262996e-20
1.51590761e-08
-1.60954756e-25
-9.26695364e-20
1.94626402e-08
0
2.82128477e-24
2.48693124e-08
-8.41265017e-21
-1.85623219e-19
3.16302963e-08
-2.00032808e-20
-1.85849518e-19
4.0063303e-08
-1.16520276e-20
1.8620493e-19
5.05880102e-08
-1.75333858e-20
1.86727813e-19
6.37727072e-08
-1.17435856e-20
0
8.03165764e-08
-1.18302425e-20
1.88735242e-19
1.00563448e-07
-1.19543514e-20
1.22743266e-07
-1.81732025e-20
1.90090119e-19
0
2.91743623e-11
0
0
8.89505079e-11
-5.78243968e-21
1.1564883e-20
1.54060094e-10
0
-2.31298273e-20
2.30147433e-10
0
3.44183197e-27
3.23990528e-10
5.78251968e-21
-2.31300064e-20
4.43564077e-10
0
-4.62602798e-20
5.98686266e-10
1.15652504e-20