/*--------------------------------*- C++ -*----------------------------------*\
| =========                 |                                                 |
| \\      /  F ield         | foam-extend: Open Source CFD                    |
|  \\    /   O peration     | Version:     4.1                                |
|   \\  /    A nd           | Web:         http://www.foam-extend.org         |
|    \\/     M anipulation  |                                                 |
\*---------------------------------------------------------------------------*/
FoamFile
{
    version     2.0;
    format      ascii;
    class       volScalarField;
    location    "0.7";
    object      p;
}
// * * * * * * * * * * * * * * * * * * * * * * * * * * * * * * * * * * * * * //

dimensions      [0 2 -2 0 0 0 0];

internalField   nonuniform List<scalar> 
35840
(
79.363905
64.7196063
55.6546288
51.334274
48.3833906
46.0440568
44.2040281
42.6890986
41.3632516
40.1562173
39.0306229
37.9635565
36.9403443
35.9513095
34.9896604
34.0503175
33.1293165
32.223479
31.3302275
30.4474713
29.5735207
28.707032
27.8469657
26.9925503
26.1432515
25.298745
24.4588893
23.6237003
72.4839033
62.0781691
54.8925915
51.1127277
48.3437613
46.0612613
44.2412173
42.7363976
41.4125461
40.2025139
39.0723088
38.0003915
36.9725027
35.9791609
35.0136575
34.0709129
33.1469233
32.2384713
31.3429418
30.4581989
29.5825133
28.7145122
27.853135
26.9975933
26.14734
25.3020407
24.4615459
23.6258641
69.2933046
60.5291678
54.1752959
50.6735568
48.0890133
45.9322766
44.1843907
42.7223413
41.4239524
40.2280046
39.1049729
38.0361723
37.009007
36.0150271
35.048148
34.103635
33.1776648
32.2671091
31.3693941
30.4824094
29.6044433
28.7341335
27.8704298
27.0125597
26.1599965
25.3124299
24.4697387
23.6319609
67.6763119
59.3408555
53.442534
50.2160787
47.8234795
45.805771
44.1459174
42.7361159
41.4678905
40.2880582
39.172372
38.1057171
37.0777481
36.0813876
35.1113546
34.1633458
33.2337434
32.3194972
31.4180483
30.5272745
29.6454453
28.7711875
27.9034497
27.0414699
26.1847459
25.3330057
24.4861766
23.6443545
66.5757044
58.3729438
52.7682613
49.7839217
47.5620365
45.6726183
44.1041696
42.7541947
41.5231125
40.3650668
39.2609343
38.1992142
37.1720439
36.1739834
35.200791
34.2487916
33.3147228
32.3957173
31.4892975
30.5933655
29.7061908
28.8263975
27.9529372
27.0850647
26.2223126
25.3644624
24.5115127
23.6636447
65.7781496
57.6463942
52.2124371
49.3923297
47.3007526
45.5185822
44.0349119
42.7467425
41.5584563
40.4290193
39.343166
38.2923464
37.270921
36.2750552
35.3016235
34.3477022
33.4105188
32.4875135
31.5763937
30.6751676
29.7821705
28.8960721
28.0158635
27.1408498
26.2706305
25.4050745
24.5442881
23.6885786
65.1790932
57.0882969
51.7531051
49.0419851
47.0487227
45.3532425
43.9424656
42.7116838
41.5666675
40.4690007
39.405878
38.3708222
37.3598782
36.3705163
35.4005819
34.4478546
33.5100587
32.584978
31.6705516
30.7649444
29.8666039
28.9742831
28.0870525
27.2043046
26.3257443
25.4513685
24.5814374
23.7164343
64.7128112
56.6463362
51.3722497
48.7353651
46.8155666
45.1884164
43.8377881
42.657151
41.5524297
40.4863901
39.4476209
38.4309678
37.4336266
36.4540072
35.4906913
34.5420187
33.6061296
32.6811093
31.7651105
30.856455
29.953706
29.0557111
28.1616368
27.2709851
26.3835944
25.4996269
24.6195413
23.7440514
64.3411484
56.2904785
51.0565331
48.4710634
46.6057206
45.0318499
43.7301439
42.5922313
41.5235934
40.4873412
39.4727407
38.4754107
37.4932773
36.5253776
35.5708047
34.6283007
33.6963114
32.7731458
31.8571185
30.9466689
30.0404467
29.1373793
28.2367215
27.3380873
26.4414631
25.5472038
24.6560088
23.7688775
64.0403525
56.0005707
50.7941379
48.245092
46.4204368
44.888214
43.6262268
42.5243834
41.4874827
40.478527
39.4870012
38.508909
37.5425937
36.587473
35.6429625
34.7080621
33.7814118
32.8614572
31.9466064
31.0353566
30.1263979
29.2187003
28.3115804
27.40475
26.4983457
25.5929362
24.6895028
23.78939
63.7945656
55.7625875
50.5757481
48.0532368
46.2594534
44.7600393
43.5304041
42.4589631
41.4497788
40.4655189
39.4956086
38.5361706
37.5857357
36.6439119
35.7102812
34.7839745
33.86372
32.9480131
32.0352755
31.1239917
30.2128306
29.3007508
28.387087
27.4716211
26.5546313
25.6369153
24.7197789
23.8049838
63.5927303
55.5665512
50.3941632
47.8915281
46.1216001
44.6483336
43.4452545
42.3995436
41.4145657
40.4525614
39.5027418
38.5611771
37.6264236
36.6981352
35.7759346
34.8589724
33.9459686
33.0353782
32.1255498
31.214874
30.3019216
29.3855665
28.465099
27.5403242
26.6116397
25.6800823
24.7473308
23.8156523
63.4268287
55.4051001
50.2437121
47.7563742
46.0052609
44.5531522
43.3721257
42.3483748
41.3846483
40.4427453
39.5115902
38.5870993
37.6677456
36.7531242
35.8427984
34.9358459
34.0308888
33.1262487
32.2201093
31.3106738
30.3963167
29.4757318
28.5480766
27.6131085
26.6713027
25.7239356
24.7731121
23.8217156
63.2908295
55.2726169
50.1198506
47.6446044
45.9086594
44.4739776
43.3115334
42.3067483
41.3618532
40.4382331
39.5245052
38.6163799
37.7121801
36.811369
35.9133766
35.0171314
34.1210723
33.2232976
32.3217274
31.414267
30.498975
29.5742391
28.6389611
27.6927439
26.7360674
25.7704293
24.798416
23.8236675
63.1800413
55.1646811
50.0188634
47.5534298
45.8299948
44.4099496
43.2634306
42.2752665
41.3472684
40.4404565
39.5431521
38.6508419
37.7616637
36.8749046
35.9898113
35.1050981
34.218946
33.3291429
32.4332392
31.5287151
30.6131654
29.6845076
28.7412164
27.7825804
26.8089619
25.8220271
24.824894
23.8221365
63.0906995
55.0777105
49.9376433
47.4803807
45.7675025
44.3600049
43.2273878
42.2540316
41.34142
40.4502674
39.5686295
38.6917758
37.8176509
36.9453485
36.0738964
35.2017479
34.3267655
33.4463424
32.5575474
31.6572909
30.7425232
29.8104769
28.8589625
27.8867162
26.8937817
25.8818788
24.8546855
23.8179281
63.0196941
55.0087201
49.8735326
47.4232439
45.7194761
44.322958
43.2027077
42.2427734
41.3443949
40.4680438
39.6015526
38.7400006
37.8811549
37.0239134
36.1670723
35.3087999
34.4465931
33.5773749
32.6976192
31.8035047
30.8911191
29.9567333
28.997166
28.0102495
26.995382
25.9541117
24.8906475
23.8121273
62.9643862
54.9551579
49.8242066
47.3800075
45.6842676
44.2975454
43.1884968
42.2409323
41.3559228
40.4937604
39.6421092
38.7959024
37.952757
37.1113959
36.2703985
35.4276457
34.5802444
33.724589
32.8564506
31.9711032
31.0635161
30.1286467
29.1618754
28.1596139
27.1200911
26.0442647
24.9367162
23.8062771
62.9224813
54.9147902
49.78759
47.3488157
45.6602803
44.2824483
43.1837093
42.2477131
41.3754281
40.5270363
39.6900962
38.8594445
38.0325945
37.2081435
36.3844949
35.5592704
34.729194
33.8901021
33.0369772
32.1640181
31.2647886
30.3324988
29.3604928
28.3430123
27.2762854
26.1599234
24.9984535
23.8026507
62.8919437
54.885623
49.7617974
47.3279336
45.6459588
44.2763051
43.1871742
42.2621167
41.4020685
40.5671689
39.7449316
38.9301591
38.1203339
37.3139996
36.5094556
35.7041332
34.8944261
34.075633
33.2419071
32.3862303
31.5004653
30.5755669
29.6020665
28.5709699
27.475204
26.3116908
25.0839278
23.8046799
62.8709369
54.8658478
49.7450912
47.3157228
45.6397823
44.2777199
43.1976089
42.2829719
41.4347667
40.6131478
39.8056544
39.0071359
38.2151312
37.4282288
36.6447344
35.8620065
35.0762255
34.2822488
33.4734416
32.6415009
31.776334
30.8660943
29.8975437
28.8569882
27.7320694
26.5147236
25.2053523
23.8180538
62.8577869
54.853806
49.7358562
47.3106262
45.6402623
44.2852604
43.2136492
42.3089649
41.4722244
40.6636658
39.8709321
39.089006
38.3155863
37.5494321
36.7890068
36.0317739
35.2738997
34.5100048
33.7328415
32.9329025
32.0980146
31.2130333
30.2598631
29.2181788
28.0673893
26.7906122
25.3811499
23.8522433
62.8509665
54.8479667
49.7325846
47.3111612
45.6459352
44.2974921
43.2338759
42.3386507
41.5129435
40.7171439
39.9390718
39.1739337
38.4197047
37.6754643
36.9400251
36.211198
35.4854332
34.7574626
34.0197988
33.2620624
32.4701592
31.6253984
30.703793
29.6760211
28.5089371
27.1702194
25.6378625
23.9188081
62.8490957
54.8469194
49.7338568
47.3159336
45.6553978
44.3130007
43.2568222
42.3704823
41.5552653
40.7717653
40.0080462
39.259628
38.5248828
37.8033739
37.0944868
36.3966818
35.707095
35.021089
34.3315721
33.6280057
32.8950435
32.1108058
31.2449467
30.2570058
29.0960987
27.7041462
26.026389
24.0452283
62.8508762
54.8493813
49.7383856
47.323634
45.6673175
44.3303937
43.2810081
42.4028594
41.5974198
40.8255276
40.0755466
39.343389
38.6279349
37.9293928
37.2479552
36.5830725
35.9330557
35.2945864
34.6619078
34.0255339
33.3702875
32.6724692
31.8961218
30.9886244
29.8771658
28.4673592
26.6509938
24.3414304
62.8551149
54.854209
49.7450229
47.3330462
45.6804329
44.3483399
43.3049906
42.4341817
41.6375894
40.8763189
40.13907
39.4222014
38.725186
38.0490107
37.3948858
36.7635838
36.1551114
35.5682754
34.999876
34.4432683
33.8858986
33.3052317
32.6623486
31.892297
30.8924526
29.5096513
27.5605751
24.825385
62.8608018
54.8603992
49.7527345
47.3430888
45.6936047
44.3656124
43.3274138
42.4629136
41.6739917
40.9220204
40.1960435
39.4928851
38.812648
38.157171
37.5288191
36.9299366
36.3626695
35.8287279
35.3288138
34.8614079
34.4203674
33.9903414
33.5379189
32.9945596
32.2243054
30.9641571
28.7970566
24.9203054
62.8670956
54.8671006
49.7606411
47.3528391
45.7058461
44.3811303
43.3470646
42.4876578
41.7049748
40.9606305
40.2439873
39.5523058
38.8862913
38.2486149
37.6428047
37.0728464
36.5432264
36.0590272
35.6258588
35.2494064
34.9341946
34.6806932
34.4785218
34.2908644
34.0173314
33.4037031
31.7567586
26.406088
72.6431349
62.20105
54.965376
51.1369187
48.3322662
46.0249288
44.188219
42.6740143
41.3467794
40.1376863
39.0112096
37.9445972
36.9227005
35.9354417
34.9757545
34.038374
33.1192241
32.2150753
31.323334
30.4419077
29.5691144
28.7036213
27.8443995
26.9906868
26.1419572
25.2978932
24.4583598
23.6233787
64.9234083
59.5291619
54.6082938
51.334463
48.6637555
46.351128
44.4566697
42.8856429
41.5130823
40.2688404
39.1162035
38.0304093
36.9940552
35.9954956
35.0267278
34.081893
33.1565185
32.2471096
31.3508893
30.4656298
29.5895469
28.7212308
27.8595932
27.0038259
26.1533661
25.3078666
24.4671675
23.6312685
61.6830227
58.1798623
54.1869939
51.1168614
48.5826841
46.3749531
44.5215449
42.9601236
41.5878081
40.3398431
39.1818563
38.0906604
37.0493441
36.0462809
35.0734179
34.1248302
33.1959704
32.2832786
31.3839279
30.4956556
29.6166538
28.7454968
27.8810888
27.022622
26.1695412
25.3215131
24.4783965
23.6402133
60.1065448
57.0239234
53.5104329
50.7205692
48.3756807
46.3084016
44.5389439
43.0206876
41.6695114
40.4299684
39.2727902
38.1784805
37.1323763
36.1239708
35.1457356
34.1919679
33.2581755
32.3407705
31.4368687
30.5441468
29.6607459
28.7852037
27.9164046
27.053538
26.1960624
25.3436728
24.496269
23.6539233
59.000621
56.0247801
52.825844
50.3064016
48.13541
46.1918816
44.5109298
43.0504599
41.7349722
40.5162701
39.36976
38.2794026
37.2331075
36.2220792
35.2398498
34.2813503
33.3424421
32.4197125
31.5103485
30.6120438
29.7229332
28.8415447
27.9667608
27.0977833
26.2341018
25.3754611
24.5218284
23.6733578
58.1932492
55.279733
52.2597501
49.9186638
47.878151
46.0367419
44.4378207
43.0382814
41.7656348
40.5763454
39.4492437
38.3708021
37.331004
36.3226754
35.3405136
34.3802503
33.438281
32.5115353
31.5974099
30.6937238
29.7986887
28.9108866
28.0292482
27.1530311
26.2817957
25.4153771
24.5538524
23.6975029
57.586107
54.7081751
51.787951
49.5636772
47.6239309
45.8673901
44.3396959
42.9967102
41.7670615
40.6098916
39.506326
38.4445794
37.4161167
36.415006
35.4369081
34.4782694
33.5360037
32.6074068
31.6901282
30.7821602
29.8818371
28.9878376
28.0991808
27.2152194
26.3356255
25.4603682
24.5896829
23.7240314
57.1128469
54.2553488
51.3959539
49.2513281
47.3881014
45.6996031
44.2310911
42.9375868
41.7478584
40.6222883
39.5433778
38.5005062
37.48615
36.4952521
35.5241849
34.5699468
33.6298687
32.7015549
31.7828781
30.8719924
29.9673543
29.0677451
28.1722854
27.2804426
26.3920276
25.5071792
24.6263364
23.7501958
56.735507
53.8913354
51.0717714
48.9821749
47.1758774
45.540971
44.1210368
42.8699623
41.7161077
40.6202456
39.565588
38.5422318
37.5433129
36.5643626
35.6022492
34.6543664
33.7183481
32.7920239
31.8734295
30.9608356
30.0527898
29.1481551
28.2461418
27.3463313
26.4486853
25.5535381
24.6615722
23.7737748
56.4302609
53.5953151
50.8029569
48.752223
46.988531
45.395865
44.0157181
42.8006894
41.6785176
40.6099193
39.5783667
38.5743272
37.5913221
36.6252456
35.6732823
34.733082
33.8024723
32.8794201
31.9620518
31.0486967
30.1379438
29.228698
28.3202307
27.4122206
26.5047794
25.5984579
24.694224
23.7934107
56.18102
53.352686
50.5796594
48.557193
46.825852
45.2666305
43.9190818
42.7345667
41.6401486
40.5962621
39.5863553
38.6010143
37.6339358
36.6811975
35.7401498
34.8085742
33.884389
32.9656088
32.0503728
31.1369991
30.2240541
29.3104285
28.3954106
27.4787493
26.5606977
25.6420352
24.7240543
23.8085084
55.9765078
53.1530766
50.3942863
48.3929689
46.6866139
45.1541147
43.8334233
42.6748097
41.6046831
40.5830985
39.5933204
38.625888
37.6745205
36.7353408
35.805742
34.8835285
33.9666105
33.0529608
32.140647
31.2278929
30.3131643
29.3952659
28.4734393
27.5474534
26.6176787
25.6851324
24.751481
23.8189855
55.8085212
52.9888369
50.2408626
48.2558003
46.5691291
45.058278
43.7599409
42.6234771
41.5747064
40.5732828
39.6022113
38.6518844
37.7159403
36.7904456
35.8727381
34.960551
34.0516956
33.1440135
32.2354082
31.3239143
30.4077992
29.4856841
28.556674
27.6204856
26.6775635
25.7291619
24.7773728
23.8250762
55.67088
52.8541392
50.1146235
48.1423911
46.4715662
44.9785516
43.6990753
42.5817635
41.5519323
40.5688554
39.6152539
38.6813226
37.7605539
36.8488878
35.9435323
35.0420711
34.1421349
33.2413452
32.3373413
31.4278579
30.5108431
29.5846078
28.6479951
27.7005611
26.7427484
25.7760272
24.8029686
23.8272116
55.5587774
52.7444106
50.0116956
48.0498576
46.3920814
44.9140442
43.6507414
42.5502247
41.5373956
40.5711904
39.6340546
38.7159676
37.810243
36.9126501
36.020213
35.130306
34.240308
33.3475307
32.4492429
31.5427518
30.6255384
29.6954372
28.7508563
27.7910267
26.8162624
25.828192
24.8299123
23.8259979
55.468361
52.6559582
49.9288581
47.9756595
46.328877
44.863673
43.6144916
42.5289424
41.5315995
40.5811153
39.6596877
38.7570882
37.8664423
36.9833258
36.1045512
35.2272403
34.3484561
33.4651164
32.5740086
31.6718693
30.7555308
29.822135
28.8694133
27.8960289
26.9019573
25.8888626
24.8603883
23.8222608
55.3964551
52.5857168
49.8633713
47.9175317
46.2802218
44.8262402
43.5896197
42.5176386
41.5346228
40.5990005
39.6927634
38.805499
37.9301543
37.0621191
36.1979847
35.3345926
34.4686424
33.5965861
32.7146186
31.8187448
30.9049303
29.9693455
29.0087133
28.0207677
27.004807
25.9622893
24.8973612
23.8171549
55.340372
52.531076
49.8128515
47.8734245
46.2444498
44.8004738
43.5752285
42.5157518
41.5461948
40.6248234
39.7334721
38.8615807
38.0019577
37.1498299
36.3015773
35.4537584
34.6026903
33.744303
32.8740939
31.9871656
31.0783627
30.1425312
29.174933
28.1718436
27.1313393
26.0542253
24.9449656
23.8123646
55.2977824
52.4897606
49.7751815
47.841455
46.2199509
44.7850495
43.5702706
42.5224881
41.5657462
40.6582083
39.7816055
38.925295
38.0819947
37.24681
36.4159516
35.5857283
34.7520846
33.9104028
33.0554014
32.1811156
31.2809864
30.3481027
29.3756611
28.3577115
27.2902429
26.1726026
25.0090935
23.8104014
55.2666254
52.459747
49.7484464
47.8198694
46.205161
44.7786025
43.573576
42.5368572
41.5924395
40.6984456
39.8365794
38.9961795
38.1699346
37.3529037
36.5412042
35.7309666
34.9178188
34.0966215
33.261282
32.4046358
31.5184339
30.5935068
29.6202066
28.5892693
27.4932417
26.328586
25.0983369
23.8150057
55.245048
52.4392067
49.7308889
47.8070169
46.1985534
44.7797363
43.5838735
42.55769
41.6251883
40.7445213
39.8974374
39.073324
38.2649319
37.4673749
36.676789
35.8892466
35.1001817
34.3040381
33.4939651
32.6615464
31.796608
30.887193
29.919859
28.8805461
27.756315
26.5383043
25.2259319
23.8325928
55.2313642
52.4264687
49.7208822
47.8013342
46.1986381
44.7870336
43.5997966
42.5836606
41.6626898
40.7951317
39.9628454
39.155357
38.3655841
37.5888217
36.8213771
36.0594465
35.2984757
34.5327072
33.7547246
32.9549651
32.1212381
31.2383376
30.2879629
29.2493144
28.1009204
26.8245888
25.4117422
23.8741713
55.2240269
52.4199947
49.7169151
47.8013427
46.2039663
44.7990544
43.6199102
42.6133194
41.7034478
40.8486953
40.0311073
39.2404395
38.4698923
37.7150917
36.9727101
36.2393137
35.5106654
34.7811681
34.0432354
33.2865278
32.4970508
31.6561719
30.7397656
29.7179183
28.556048
27.2194069
25.6820339
23.9485529
55.2216165
52.4183643
49.7175748
47.8056467
46.2131275
44.8143636
43.6427444
42.6451212
41.7458018
40.9033928
40.1001929
39.3262759
38.5752453
37.8432219
37.127468
36.4252247
35.7329813
35.045834
34.3566893
33.6551911
32.9262914
32.1484183
31.2913481
30.3140772
29.1637799
27.7780855
26.0919104
24.0801679
55.2228619
52.4203017
49.72157
47.8129272
46.2247692
44.8315689
43.6668217
42.6774654
41.7879803
40.9572196
40.1677895
39.4101599
38.6784474
37.9694288
37.2811898
36.6119885
35.9595337
35.3203155
34.6886976
34.0555701
33.4063435
32.7180221
31.9551812
31.0650036
29.9730238
28.5797391
26.7588508
24.4099674
55.2266361
52.424677
49.7277417
47.8219687
46.2376347
44.8493434
43.690702
42.7087525
41.8281651
41.0080612
40.2313893
39.4890684
38.7758121
38.0891838
37.4283013
36.7927698
36.1820378
35.5948017
35.0281248
34.4759837
33.9268077
33.3592872
32.7354441
31.9897705
31.0157664
29.6444001
27.6649149
24.8470072
55.2319449
52.4304897
49.7350595
47.8316962
46.2505903
44.8664639
43.7130319
42.7374477
41.8645726
41.0537961
40.2884149
39.5598142
38.8633398
38.1974117
37.5623118
36.9592345
36.3898039
35.8556929
35.3580157
34.8961733
34.465575
34.0529967
33.6274457
33.1209451
32.3900317
31.1218663
28.8084628
24.3742722
55.2379506
52.4368942
49.7426516
47.8411936
46.2626545
44.8818542
43.7326014
42.7621549
41.8955506
41.0924207
40.3363825
39.6192573
38.9369918
38.2888387
37.6762438
37.1020473
36.5702283
36.085873
35.6551093
35.2848112
34.9816397
34.7495607
34.5841275
34.4576738
34.2806458
33.782758
32.1929951
25.7954012
69.7259601
60.9175427
54.4797971
50.875435
48.198942
45.9662085
44.1579107
42.6517613
41.3244023
40.111805
38.9813984
37.9117831
36.8881359
35.9003159
34.9410473
34.0048066
33.0872777
32.1850403
31.2953614
30.4160516
29.5453647
28.6819271
27.8246829
26.9728527
26.1258984
25.2834933
24.445495
23.6119186
61.9697301
58.4651007
54.4442275
51.3201237
48.7254491
46.462397
44.5627512
42.9657039
41.5678959
40.3027022
39.1337423
38.0361826
36.9918202
35.9880362
35.016046
34.0694026
33.1431927
32.2336044
31.3376415
30.4529283
29.5775811
28.7101217
27.849414
26.9946152
26.1451369
25.3006112
24.4608606
23.6258694
58.7271535
57.2319998
54.2348095
51.2972315
48.8090249
46.631971
44.7419984
43.1194974
41.6963975
40.4113797
39.2265491
38.1165125
37.0624289
36.050857
35.0724081
34.1202542
33.1892178
32.2752975
31.3753665
30.4869615
29.6081396
28.7373831
27.8735318
27.0157311
26.16339
25.3161463
24.4738341
23.6364539
57.1711264
56.109352
53.6271788
50.9897913
48.6946622
46.6573996
44.8411542
43.2448018
41.8272114
40.538997
39.346387
38.2268276
37.16326
36.1428868
35.1564353
34.1970427
33.2594322
32.3394699
31.4338976
30.5401394
29.6561641
28.7803905
27.9116183
27.0489748
26.191871
25.3399635
24.4931196
23.6513827
56.0683469
55.1081059
52.9593693
50.617169
48.5032494
46.5877627
44.8553722
43.3099257
41.9209592
40.6480946
39.4622178
38.3437236
37.2777967
36.2531062
35.2612464
34.2958792
33.3520365
32.4257405
31.5137929
30.6136265
29.7231975
28.8409084
27.9655514
27.0962613
26.2324757
25.3738972
24.5204572
23.672278
55.2562355
54.3557037
52.3946103
50.2448229
48.2655774
46.4505052
44.7984808
43.3120049
41.9633479
40.7177689
39.5499655
38.442623
37.3827559
36.3604981
35.368489
34.401115
33.4539141
32.5232504
31.6061461
30.7001731
29.8033775
28.9142268
28.0315705
27.154606
26.2828477
25.416093
24.5543873
23.6979839
54.6423409
53.7750313
51.9158517
49.8900995
48.015434
46.2855116
44.7047505
43.2748159
41.968611
40.7544818
39.6098107
38.5190316
37.4705473
36.4556667
35.4679272
34.5023678
33.5550054
32.6225547
31.7022885
30.7919569
29.8897379
28.9942057
28.104308
27.2193469
26.3389568
25.4630776
24.5919207
23.7259267
54.162055
53.3129588
51.5146982
49.5727693
47.7777432
46.1166776
44.5954989
43.2155587
41.9495249
40.7670178
39.6470219
38.5752113
37.540991
36.5365349
35.5560756
34.5951748
33.6502387
32.718272
31.7967605
30.8836116
29.977125
29.0759801
28.17923
27.2862963
26.3969576
25.5113303
24.6298359
23.7531571
53.7783322
52.9408108
51.1819419
49.2974196
47.5614268
45.9547611
44.4827355
43.1459525
41.9163768
40.7639258
39.6684117
38.6163059
37.5976967
36.6053633
35.6340453
34.6796976
33.7390187
32.8092275
31.8879637
30.9732454
30.0634585
29.1573608
28.2540943
27.3531944
26.454592
25.5586016
24.6658928
23.7774425
53.4676607
52.6379964
50.9057434
49.0614283
47.3694322
45.8057521
44.3741747
43.0742045
41.8769717
40.7522409
39.6801413
38.6475758
37.6450494
36.6657291
35.7046917
34.7581584
33.8230223
32.8966363
31.9767271
31.0613663
30.1489762
29.2383526
28.3286947
27.4196334
26.5112488
25.6040701
24.6990519
23.7975222
53.2139459
52.3898135
50.6763264
48.8610859
47.2023769
45.6727602
44.2744049
43.0056523
41.8367967
40.7372407
39.6871132
38.6734758
37.6870379
36.7211753
35.7711522
34.8333357
33.9047152
32.9826938
32.0650102
31.1497218
30.2352255
29.3202994
28.4041557
27.4864901
26.5675208
25.6480041
24.7292197
23.8129162
53.0057933
52.1857072
50.4859716
48.6923928
47.0593
45.5568837
44.1859272
42.9436911
41.7996817
40.7228563
39.693169
38.69766
37.727085
36.7748883
35.8363966
34.9080135
33.986729
33.0699084
32.1552195
31.2406247
30.3244177
29.4052862
28.4823914
27.5554457
26.6247804
25.6913869
24.7569179
23.8236307
52.8348533
52.0178265
50.3285045
48.5515217
46.9385409
45.4581319
44.1099828
42.8904206
41.7682453
40.7119602
39.7012619
38.7230602
37.7680486
36.8296347
35.9031075
34.9848127
34.0716503
33.1608586
32.2499429
31.336675
30.419148
29.4958634
28.565841
27.6287359
26.6849485
25.7357035
24.7830762
23.8299436
52.6948055
51.8801616
50.1989652
48.4350486
46.8382093
45.3759028
44.0469853
42.8470151
41.7441858
40.7065763
39.7135983
38.7519738
37.8122649
36.8877694
35.9736621
35.0661519
34.1619663
33.2581269
32.3518757
31.4406861
30.5223296
29.5949926
28.6574281
27.7091226
26.7504671
25.7828959
24.8089601
23.8322976
52.5807227
51.7679884
50.0933136
48.3399599
46.7563748
45.3092414
43.9967982
42.8139906
41.728508
40.7080538
39.7317614
38.7861434
37.861594
36.9512545
36.0501314
35.1542349
34.2600454
33.3642804
32.4638146
31.5556939
30.6372199
29.7060967
28.760633
27.7999808
26.8243909
25.8354459
24.8362174
23.8312813
52.4886552
51.6774939
50.0081946
48.2636017
46.6911547
45.2569979
43.9589195
42.7913875
41.7216844
40.7171963
39.7568052
38.8268192
37.917453
37.0216697
36.1342752
35.2510331
34.3681187
33.4818616
32.5886582
31.6849817
30.7674808
29.8331598
28.8796393
27.9054874
26.9105986
25.8965738
24.8670214
23.8276731
52.4153516
51.6055203
49.9407643
48.2036168
46.640744
45.2179145
43.9325951
42.7788909
41.7237664
40.7343531
39.7893223
38.8748007
37.9808348
37.1002091
36.2275181
35.3582571
34.4882481
33.6133589
32.7293949
31.8320977
30.917245
29.9808595
29.0195358
28.0308881
27.014103
25.9705456
24.9043078
23.8225309
52.3580663
51.5493871
49.8885598
48.1578837
46.6034176
45.1906701
43.9168878
42.7759089
41.7344605
40.7594837
39.829489
38.9304615
38.0523084
37.1876623
36.330919
35.4773041
34.6222609
33.7611415
32.8890588
32.0008531
31.091176
30.1547116
29.1865666
28.182857
27.1414956
26.0631394
24.9521566
23.8173597
52.3144269
51.5067672
49.8494057
48.1244657
46.5775199
45.1739021
43.9107192
42.7816232
41.7531778
40.7921977
39.8770911
38.9937531
38.1320086
37.2843802
36.4451053
35.6091667
34.7716454
33.9273556
33.0706385
32.19527
31.2944917
30.3612112
29.38843
28.3699724
27.301572
26.1823242
25.0163481
23.8143294
52.2823416
51.4755999
49.821345
48.1015706
46.5614535
45.1662177
43.9128956
42.7950229
41.7790666
40.8317792
39.9315349
39.0642088
38.2196069
37.3902103
36.5701724
35.7543104
34.9374026
34.1137545
33.2769078
32.4194452
31.5329146
30.607939
29.6346154
28.6033458
27.5062551
26.3393413
25.1052511
23.8164543
52.2599358
51.4540308
49.8025922
48.0875211
46.553669
45.1662001
43.9221262
42.8149272
41.8110334
40.8772098
39.9918631
39.1409243
38.3142598
37.5044147
36.705574
35.9125127
35.1198319
34.3214399
33.5101403
32.6772796
31.812482
30.903553
29.9367073
28.8973772
27.7719071
26.5505659
25.2319041
23.829038
52.2455103
51.4403728
49.7915023
48.080737
46.5526603
45.1724159
43.9370364
42.8400054
41.8477776
40.9271889
40.0567498
39.2225286
38.4145636
37.6255913
36.849983
36.0826562
35.3182476
34.5504942
33.7716682
32.9720028
32.1391225
31.2575546
30.3085298
29.2704521
28.1206077
26.8391875
25.4158161
23.8615763
52.2375154
51.4330828
49.7865531
48.0797267
46.5569658
45.1834228
43.9561952
42.8688147
41.8878118
40.9801431
40.1245005
39.3071843
38.5185212
37.7515895
37.0011426
36.2624922
35.530626
34.7994873
34.0612372
33.3053993
32.5178515
31.6796955
30.7661862
29.7461467
28.5827116
27.2377719
25.6811282
23.9160815
52.2345364
51.4307592
49.7863376
48.083085
46.565179
45.1977982
43.9781434
42.8998239
41.9294829
41.034258
40.1930901
39.3926007
38.6235248
37.8794476
37.1557326
36.4483979
35.7532044
35.0648584
34.3761123
33.6766017
32.9512932
32.1784527
31.327175
30.3547139
29.2043627
27.8070134
26.0860694
24.0094371
52.2352935
51.4321165
49.7895643
48.0895053
46.5759658
45.2141619
44.0014157
42.9314418
41.9710288
41.0875381
40.2602148
39.4760783
38.7263831
38.0053831
37.3092895
36.6351764
35.9800881
35.3402278
34.7099642
34.080409
33.4372825
32.757724
32.0058006
31.1264998
30.0399768
28.6368549
26.7696228
24.3209638
52.2386468
51.4359926
49.7950678
48.0977962
46.5880838
45.2311967
44.0245837
42.9620812
42.0106437
41.137881
40.3233769
39.5546026
38.8234148
38.1248681
37.4562321
36.8159747
36.2029636
35.6157532
35.0516616
34.5052923
33.9659932
33.4133746
32.8095871
32.0860503
31.1274436
29.7444442
27.69525
24.7305555
52.2436026
51.4413847
49.8018261
48.1068967
46.6004114
45.2476917
44.0463083
42.990222
42.0465583
41.1831783
40.3800113
39.6249961
38.9106265
38.2328266
37.5900564
36.9824239
36.4110699
35.8777131
35.3840788
34.9308608
34.5156041
34.128146
33.7406575
33.2850597
32.607702
31.3438173
28.8864505
23.8800369
52.2493281
51.4474532
49.8089757
48.115901
46.6119789
45.2625839
44.0653936
43.0144828
42.0771347
41.2214405
40.4276473
39.6841302
38.9839871
38.3239845
37.7037682
37.125138
36.591685
36.1087401
35.6834566
35.3248628
35.0436136
34.8505838
34.7524271
34.737991
34.737464
34.4602869
32.9868128
25.5123582
68.4998914
60.105983
54.0755588
50.6800598
48.1272969
45.9684855
44.1904425
42.6892486
41.3556172
40.1323623
38.9905859
37.9108152
36.8789573
35.8849633
34.9213614
33.9823186
33.0631925
32.1602709
31.270581
30.391746
29.5218782
28.6594983
27.8034722
26.9529617
26.1073841
25.2663778
24.4297719
23.5975583
60.7937399
57.6963245
54.111861
51.2039194
48.729118
46.539116
44.6627927
43.0593464
41.6453786
40.3620827
39.17595
38.0637738
37.0078525
35.9953069
35.0168705
34.0656208
33.136225
32.2245234
31.3272482
30.4418184
29.5661973
28.6987925
27.8383824
26.9840596
26.1351857
25.2913532
24.4523527
23.6181413
57.5740386
56.500108
53.9795029
51.2796539
48.91404
46.8083535
44.9302962
43.2827828
41.8263775
40.5104678
39.2990605
38.1675194
37.0969803
36.073163
35.0856957
34.1269591
33.1911704
32.2738625
31.371561
30.4815485
29.6016971
28.7303524
27.8662519
27.0084629
26.1563339
25.3094539
24.467617
23.6307898
56.0452185
55.414601
53.420791
51.0305341
48.8633456
46.9004631
45.0932067
43.462981
42.0019598
40.6741487
39.4477993
38.3009542
37.2165121
36.1806229
35.1826998
34.2148218
33.2709325
32.3463182
31.4372983
30.5409976
29.655173
28.7780897
27.9084335
27.0452453
26.1878684
25.3359049
24.4891762
23.6476868
54.9587653
54.4325816
52.776776
50.688721
48.7071085
46.8670173
45.1419634
43.5584486
42.1208955
40.8039071
39.5807485
38.432251
37.3434318
36.3017655
35.2973461
34.3226234
33.371756
32.4401317
31.5240985
30.6207758
29.7279037
28.8437328
27.9669446
27.0965915
26.2320469
25.3729619
24.5192242
23.6709182
54.1531865
53.688418
52.223305
50.3321384
48.487395
46.7474285
45.1015631
43.5750029
42.1751148
40.8829929
39.6761541
38.5376508
37.4541787
36.4145606
35.4098166
34.4330125
33.4787374
32.5426779
31.6213788
30.7120891
29.8126392
28.9213505
28.0369705
27.158624
26.2857708
25.4181659
24.5558195
23.6989541
53.5408275
53.1105799
51.7486169
49.9834718
48.244598
46.5898649
45.0149046
43.5441388
42.1854991
40.9235877
39.7389662
38.6164667
37.5440915
36.5117758
35.5113776
34.5365497
33.5823047
32.644641
31.7203294
30.8067819
29.9019535
29.0042708
28.1125828
27.226124
26.3444816
25.4675607
24.5955457
23.7288556
53.0596342
52.6483296
51.3475858
49.6671778
48.0088822
46.4232998
44.9078877
43.4869184
42.1680154
40.9372009
39.7768504
38.6730925
37.6148956
36.5930283
35.60002
34.6300179
33.6783957
32.7414194
31.8160558
30.8998605
29.9909007
29.0877022
28.1892161
27.2947958
26.4041742
25.5174361
24.6349809
23.7574751
52.6740045
52.2746879
51.0132991
49.3906558
47.7919364
46.2610148
44.7948777
43.4171664
42.1347147
40.9338545
39.7978972
38.7138197
37.6712629
36.6615857
35.6778193
34.7144971
33.767276
32.8326275
31.9076644
30.9900459
30.077918
29.1698788
28.2649634
27.3626357
26.4627784
25.5656742
24.6719716
23.782634
52.3611933
51.9699765
50.7350213
49.152622
47.5981555
46.1104327
44.6849551
43.3442981
42.0943781
40.9213487
39.8088887
38.7444399
37.7180587
36.7214867
35.7480942
34.7926836
33.8511068
32.9199683
31.9964663
31.0783109
30.1636808
29.2512079
28.3399807
27.4295544
26.5199577
25.6116857
24.7056707
23.8032283
52.1054519
51.71991
50.5034904
48.9500565
47.4289676
45.9754623
44.5834274
43.2742607
42.0529706
40.9053159
39.8149924
38.7696169
37.7594505
36.7764428
35.8141567
34.8675461
33.9325636
33.0058666
32.0846669
31.1666601
30.2499985
29.3332942
28.415645
27.4966672
26.5765242
25.6559354
24.7361573
23.818926
51.8955153
51.5141068
50.3112101
48.7792722
47.2837918
45.8575781
44.4931338
43.2107419
42.0145563
40.8898579
39.8201682
38.793087
37.7989219
36.8296922
35.8790286
34.9419282