/*--------------------------------*- C++ -*----------------------------------*\
| =========                 |                                                 |
| \\      /  F ield         | foam-extend: Open Source CFD                    |
|  \\    /   O peration     | Version:     4.1                                |
|   \\  /    A nd           | Web:         http://www.foam-extend.org         |
|    \\/     M anipulation  |                                                 |
\*---------------------------------------------------------------------------*/
FoamFile
{
    version     2.0;
    format      ascii;
    class       surfaceScalarField;
    location    "0.7";
    object      phi;
}
// * * * * * * * * * * * * * * * * * * * * * * * * * * * * * * * * * * * * * //

dimensions      [0 3 -1 0 0 0 0];

internalField   nonuniform List<scalar> 
102656
(
0.000395261012
5.30266257e-05
5.17123626e-05
0.000281609472
5.82613028e-05
5.53902358e-05
0.000200387902
4.23600985e-05
3.88614708e-05
0.000148889431
2.74481468e-05
2.40503227e-05
0.000117041964
1.73743628e-05
1.44731037e-05
9.6824463e-05
1.12263755e-05
8.9911246e-06
8.35591801e-05
7.39835383e-06
5.86692834e-06
7.46475991e-05
4.89556932e-06
4.01601114e-06
6.84782083e-05
3.24980667e-06
2.9195839e-06
6.40354396e-05
2.17089536e-06
2.27187321e-06
6.0708907e-05
1.45328413e-06
1.87324855e-06
5.81341035e-05
9.66013067e-07
1.60879078e-06
5.60870016e-05
6.29255575e-07
1.41784692e-06
5.44257023e-05
3.92798255e-07
1.2685017e-06
5.30573414e-05
2.24395689e-07
1.14396604e-06
5.1918399e-05
1.03344054e-07
1.03559934e-06
5.09631533e-05
1.62880728e-08
9.38958712e-07
5.01572353e-05
-4.56558056e-08
8.51574912e-07
4.94737834e-05
-8.84927083e-08
7.71945668e-07
4.88909099e-05
-1.16210573e-07
6.99085305e-07
4.83902428e-05
-1.31582433e-07
6.32250633e-07
4.79560562e-05
-1.36666951e-07
5.70854629e-07
4.75746915e-05
-1.33074782e-07
5.14440582e-07
4.72341647e-05
-1.22127642e-07
4.62655396e-07
4.69239191e-05
-1.04986695e-07
4.15233152e-07
4.66346763e-05
-8.27381912e-08
3.71981802e-07
4.6358351e-05
-5.64432262e-08
3.3276928e-07
-2.71586657e-08
2.97509366e-07
4.6088001e-05
0.000461998937
2.77115221e-05
6.33161659e-05
0.00039285345
5.22457891e-05
7.51609987e-05
0.000323886493
5.01981458e-05
6.11289075e-05
0.000266758828
4.0482545e-05
4.40932654e-05
0.000223838803
3.0490422e-05
2.98039645e-05
0.00019312363
2.23555761e-05
1.95859716e-05
0.00017128575
1.62965584e-05
1.29396746e-05
0.000155541959
1.18588043e-05
8.78055456e-06
0.00014395526
8.61629627e-06
6.2202097e-06
0.000135214033
6.2612271e-06
4.65089529e-06
0.00012844725
4.55148067e-06
3.66858737e-06
0.00012308558
3.30228337e-06
3.02539991e-06
0.000118753598
2.38077654e-06
2.58046306e-06
0.000115198255
1.69332611e-06
2.2548166e-06
0.000112244697
1.1746019e-06
2.00335276e-06
0.000109768486
7.7962112e-07
1.79993625e-06
0.000107678039
4.77594976e-07
1.62914207e-06
0.000105903404
2.47396764e-07
1.48158452e-06
0.000104389253
7.43669671e-08
1.3512929e-06
0.00010309073
-5.19246662e-08
1.23423924e-06
0.000101970623
-1.3907041e-07
1.12759697e-06
0.000100997307
-1.9271559e-07
1.02936698e-06
0.000100143382
-2.17287001e-07
9.38139118e-07
9.93848369e-05
-2.16493709e-07
8.52912469e-07
9.87004959e-05
-1.93637225e-07
7.72993062e-07
9.80716591e-05
-1.51829176e-07
6.97929146e-07
9.74818846e-05
-9.4130922e-08
6.2746348e-07
-2.36270662e-08
5.61492691e-07
9.69168614e-05
0.000447769722
1.52546538e-05
6.46871454e-05
0.00038823832
3.58422467e-05
7.59349424e-05
0.000335581019
4.06677392e-05
6.21877065e-05
0.000291761045
3.76333147e-05
4.66692028e-05
0.000257077884
3.18681768e-05
3.33054055e-05
0.000230707226
2.56793865e-05
2.30468466e-05
0.000210911437
2.0155669e-05
1.59366774e-05
0.000195899503
1.56044658e-05
1.12662722e-05
0.000184284892
1.19774196e-05
8.25348723e-06
0.000175097291
9.1384157e-06
6.3104132e-06
0.000167679807
6.93866005e-06
5.03030505e-06
0.000161590937
5.23975676e-06
4.15139668e-06
0.000156528177
3.92534387e-06
3.51819388e-06
0.000152277256
2.90324889e-06
3.04099962e-06
0.000148681399
2.10325482e-06
2.66720526e-06
0.000145622418
1.47354203e-06
2.3650613e-06
0.000143008622
9.76713602e-07
2.1146798e-06
0.000140766975
5.86089176e-07
1.9029559e-06
0.00013883792
2.82651052e-07
1.72077248e-06
0.000137171753
5.2729924e-08
1.5615134e-06
0.000135726165
-1.13715335e-07
1.42023512e-06
0.000134464611
-2.24328977e-07
1.2931689e-06
0.000133355084
-2.85217058e-07
1.17745815e-06
0.000132369215
-3.01581851e-07
1.07095782e-06
0.000131481701
-2.7820132e-07
9.72079181e-07
0.000130669946
-2.19752286e-07
8.79680141e-07
0.00012991385
-1.31014787e-07
7.92980631e-07
-1.69823478e-08
7.11490773e-07
0.000129195715
0.000440472607
9.95903664e-06
6.48230098e-05
0.000375874066
2.46434822e-05
7.57973039e-05
0.000324700983
3.0717107e-05
6.11237133e-05
0.000286197623
3.08578743e-05
4.52787995e-05
0.000257839922
2.81112755e-05
3.21146019e-05
0.000237174255
2.41847607e-05
2.21602914e-05
0.000221931149
2.0076815e-05
1.53219602e-05
0.000210341604
1.63115177e-05
1.08824925e-05
0.000201200154
1.30671758e-05
8.05169435e-06
0.000193740848
1.0355822e-05
6.24189914e-06
0.00018749449
8.12858262e-06
5.05643592e-06
0.000182175482
6.31669095e-06
4.24207479e-06
0.000177602732
4.84927268e-06
3.64882189e-06
0.000173651958
3.66196704e-06
3.19205719e-06
0.000170230329
2.70048971e-06
2.82439502e-06
0.000167263649
1.92136417e-06
2.51885888e-06
0.00016468984
1.29105873e-06
2.25946505e-06
0.000162455526
7.84378574e-07
2.03602584e-06
0.000160514067
3.82685068e-07
1.84142663e-06
0.000158824251
7.22537905e-08
1.67029253e-06
0.000157349317
-1.57132242e-07
1.51835222e-06
0.00015605621
-3.13341341e-07
1.38212072e-06
0.000154915001
-4.02764044e-07
1.25875694e-06
0.000153898451
-4.30991362e-07
1.14595994e-06
0.000152981723
-4.03371789e-07
1.04189914e-06
0.000152142217
-3.25402917e-07
9.4515803e-07
0.000151359507
-2.02986246e-07
8.54681768e-07
-4.25618797e-08
7.69725737e-07
0.000150615362
0.000437878192
7.06259919e-06
6.50182447e-05
0.000368457144
1.77996031e-05
7.62649257e-05
0.000314730379
2.34040009e-05
6.10398704e-05
0.00027641433
2.47888164e-05
4.43851054e-05
0.000250113514
2.36945975e-05
3.07174933e-05
0.000232369094
2.13288024e-05
2.06003782e-05
0.000220184035
1.84566701e-05
1.38052037e-05
0.000211416994
1.55627922e-05
9.51576637e-06
0.000204718193
1.2889432e-05
6.87654511e-06
0.000199291614
1.05234751e-05
5.25892568e-06
0.000194693988
8.47836847e-06
4.24784052e-06
0.000190690705
6.73572316e-06
3.58425134e-06
0.000187159016
5.26386851e-06
3.11709426e-06
0.000184030542
4.02750516e-06
2.76293672e-06
0.000181261069
2.99295109e-06
2.47701214e-06
0.000178816122
2.13069449e-06
2.23561715e-06
0.000176664776
1.41629627e-06
2.02610979e-06
0.000174777439
8.30326133e-07
1.84138989e-06
0.000173125325
3.57780335e-07
1.67701897e-06
0.000171680479
-1.27157176e-08
1.52981634e-06
0.00017041595
-2.89838862e-07
1.39723638e-06
0.000169305911
-4.80405939e-07
1.27710419e-06
0.000168325666
-5.90061382e-07
1.16754371e-06
0.000167451745
-6.23990202e-07
1.0669197e-06
0.000166662002
-5.87468055e-07
9.73840605e-07
0.000165935724
-4.86283243e-07
8.87158538e-07
0.000165253806
-3.27030118e-07
8.05962594e-07
-1.17264137e-07
7.29565211e-07
0.000164598943
0.000436606315
5.27548965e-06
6.5180794e-05
0.000364324309
1.3433341e-05
7.66482675e-05
0.000308255299
1.82405707e-05
6.12324392e-05
0.000268855123
2.00667461e-05
4.4122245e-05
0.000242612375
1.98822966e-05
3.00550485e-05
0.000225730966
1.85120261e-05
1.96981844e-05
0.000214861879
1.65344933e-05
1.27912637e-05
0.000207594563
1.43498026e-05
8.48030605e-06
0.000202408879
1.21955038e-05
5.87961206e-06
0.00019841247
1.01874582e-05
4.33242689e-06
0.000195114052
8.37258725e-06
3.4041994e-06
0.000192261251
6.76281892e-06
2.82570579e-06
0.000189732004
5.35247282e-06
2.44064265e-06
0.000187469209
4.12767667e-06
2.16262484e-06
0.000185444988
3.07175583e-06
1.94541658e-06
0.000183642556
2.16822851e-06
1.76489853e-06
0.00018204783
1.40234671e-06
1.60867509e-06
0.00018064613
7.61749261e-07
1.47027793e-06
0.000179421244
2.36562002e-07
1.34610421e-06
0.000178355528
-1.80867044e-07
1.23386813e-06
0.000177430234
-4.96457781e-07
1.13191253e-06
0.000176625859
-7.14906847e-07
1.0388762e-06
0.000175922539
-8.40309454e-07
9.53569083e-07
0.0001753004
-8.76771064e-07
8.74920114e-07
0.000174739897
-8.28946126e-07
8.01981265e-07
0.000174222167
-7.02486453e-07
7.33933696e-07
0.000173729411
-5.0436781e-07
6.7009424e-07
-2.43063631e-07
6.09917668e-07
0.000173245293
0.000435884555
4.0918009e-06
6.5299133e-05
0.000361911951
1.04673292e-05
7.69386157e-05
0.000304149048
1.4506354e-05
6.14971191e-05
0.00026362115
1.64098016e-05
4.41848412e-05
0.000236887816
1.67261492e-05
2.98894815e-05
0.000220037503
1.60001094e-05
1.93622296e-05
0.000209566806
1.46604485e-05
1.23447422e-05
0.000202923142
1.30243712e-05
7.96909485e-06
0.000198478754
1.13010195e-05
5.33887296e-06
0.000195268998
9.61141466e-06
3.78580018e-06
0.000192756668
8.01919336e-06
2.86572359e-06
0.000190661014
6.55451986e-06
2.30395353e-06
0.000188843597
5.22868678e-06
1.94120399e-06
0.000187239547
4.04276198e-06
1.68896497e-06
0.000185819234
2.9927339e-06
1.4993351e-06
0.000184567945
2.0725525e-06
1.34696485e-06
0.000183475802
1.27589353e-06
1.218596e-06
0.000182533242
5.97119648e-07
1.10718927e-06
0.000181729276
3.17239314e-08
1.00880469e-06
0.000181051072
-4.23697564e-07
9.21033849e-07
0.000180484017
-7.71603666e-07
8.42201354e-07
0.00018001193
-1.01386007e-06
7.7104005e-07
0.000179617461
-1.15232399e-06
7.06483422e-07
0.000179282486
-1.18939782e-06
6.47602374e-07
0.00017898854
-1.12858173e-06
5.9358191e-07
0.000178717315
-9.74971567e-07
5.43710603e-07
0.000178451208
-7.35638786e-07
4.97377411e-07
-4.19836633e-07
4.54069716e-07
0.000178173912
0.000435448296
3.2527901e-06
6.53907144e-05
0.000360405476
8.34084339e-06
7.71693054e-05
0.000301443144
1.17161238e-05
6.17525622e-05
0.000259980839
1.35246024e-05
4.43475035e-05
0.000232688748
1.40939738e-05
2.99242663e-05
0.000215614107
1.37794856e-05
1.92952654e-05
0.000205173948
1.28907738e-05
1.22098331e-05
0.00019873676
1.16721723e-05
7.78938779e-06
0.000194610322
1.02977413e-05
5.12971616e-06
0.000191784139
8.88069768e-06
3.55690036e-06
0.000189690494
7.4901607e-06
2.62267733e-06
0.000188028201
6.16624874e-06
2.05056494e-06
0.000186644903
4.93107287e-06
1.68091134e-06
0.00018546654
3.79603747e-06
1.42508774e-06
0.000184457911
2.76643769e-06
1.23492565e-06
0.000183601436
1.84433622e-06
1.08469047e-06
0.000182886267
1.03037231e-06
9.60690475e-07
0.000182303073
3.24861947e-07
8.55451437e-07
0.000181841794
-2.71635184e-07
7.64637861e-07
0.000181490718
-7.58143155e-07
6.85521824e-07
0.000181236189
-1.13326148e-06
6.16186025e-07
0.000181062723
-1.3955715e-06
5.55177718e-07
0.000180953222
-1.54412503e-06
5.01301641e-07
0.000180889319
-1.57903827e-06
4.53543268e-07
0.000180851842
-1.5021285e-06
4.11023818e-07
0.000180821406
-1.31751258e-06
3.72977416e-07
0.00018077912
-1.03208569e-06
3.38733775e-07
-6.55791986e-07
3.07704455e-07
0.000180707371
0.000435163409
2.62753129e-06
6.54618493e-05
0.000359407797
6.74850692e-06
7.73479488e-05
0.000299592784
9.56631113e-06
6.19648251e-05
0.000257396615
1.12047495e-05
4.45160217e-05
0.000229595044
1.18747829e-05
3.00207624e-05
0.000212231918
1.18099948e-05
1.93326166e-05
0.000201683197
1.12304621e-05
1.2209033e-05
0.000195270371
1.03206675e-05
7.76433098e-06
0.000191259552
9.22058868e-06
5.08797184e-06
0.000188608816
8.02947535e-06
3.50195912e-06
0.000186729053
6.81448686e-06
2.55543685e-06
0.000185304792
5.61946898e-06
1.97104048e-06
0.000184173902
4.47254763e-06
1.58941565e-06
0.000183255582
3.39182506e-06
1.32253252e-06
0.000182510127
2.38921274e-06
1.12267881e-06
0.000181917126
1.47297033e-06
9.64367462e-07
0.000181464094
6.49415236e-07
8.33988058e-07
0.000181140879
-7.59540464e-08
7.24030671e-07
0.000180937035
-6.97874496e-07
6.30083068e-07
0.000180840584
-1.2109532e-06
5.49261343e-07
0.000180837524
-1.60974175e-06
4.79539471e-07
0.000180911707
-1.88910061e-06
4.19346335e-07
0.000181044918
-2.04472879e-06
3.67392833e-07
0.000181217157
-2.07386555e-06
3.22587596e-07
0.000181407131
-1.97608209e-06
2.83980162e-07
0.000181592945
-1.75406953e-06
2.50742751e-07
0.000181753008
-1.41428272e-06
2.22134869e-07
-9.67319538e-07
1.97473186e-07
0.000181867062
0.000434967039
2.14371447e-06
6.55167774e-05
0.000358717445
5.51255116e-06
7.74855507e-05
0.000298285913
7.86336823e-06
6.21344751e-05
0.000255519719
9.30573307e-06
4.46652097e-05
0.000227281358
9.98536175e-06
3.01277832e-05
0.000209629093
1.00590722e-05
1.94031877e-05
0.00019892068
9.68251508e-06
1.22563598e-05
0.000192450146
8.99324122e-06
7.79796087e-06
0.000188456377
8.10139025e-06
5.11296714e-06
0.000185875162
7.09050664e-06
3.52018396e-06
0.000184101294
6.0216611e-06
2.56669443e-06
0.000182808254
4.93817818e-06
1.97433072e-06
0.000181826363
3.87056389e-06
1.58387425e-06
0.000181069703
2.84070164e-06
1.30778257e-06
0.00018049522
1.86488174e-06
1.09881364e-06
0.000180080439
9.55924311e-07
9.31827211e-07
0.000179811709
1.24707021e-07
7.9343812e-07
0.000179678283
-6.18823341e-07
6.76294958e-07
0.000179669339
-1.26495555e-06
5.76023827e-07
0.000179772514
-1.80390864e-06
4.89780885e-07
0.00017997316
-2.22593867e-06
4.15550158e-07
0.000180254
-2.52169961e-06
3.51759386e-07
0.000180595048
-2.68290542e-06
2.97128054e-07
0.000180973828
-2.70321684e-06
2.50571697e-07
0.000181365874
-2.57927405e-06
2.11146313e-07
0.000181745564
-2.31176381e-06
1.78004375e-07
0.000182087262
-1.90636048e-06
1.50379333e-07
-1.37434715e-06
1.27578704e-07
0.000182366712
0.000434826468
1.75792512e-06
6.55593219e-05
0.000358222018
4.52486229e-06
7.75921393e-05
0.000297334648
6.48215022e-06
6.22685879e-05
0.000254124514
7.72623798e-06
4.47896297e-05
0.000225520619
8.36319109e-06
3.02260656e-05
0.000207601112
8.50093153e-06
1.94776488e-05
0.000196718416
8.24979443e-06
1.23154163e-05
0.000190151721
7.71159792e-06
7.84833859e-06
0.000186122937
6.97175521e-06
5.15841927e-06
0.00018355261
6.09874155e-06
3.56209173e-06
0.000181823639
5.14576746e-06
2.6048645e-06
0.000180600843
4.15308791e-06
2.00788594e-06
0.000179708421
3.15106308e-06
1.61192313e-06
0.000179056271
2.16314341e-06
1.32970754e-06
0.000178598662
1.20818882e-06
1.11430141e-06
0.000178311585
3.02195845e-07
9.4080504e-07
0.000178180676
-5.40415461e-07
7.96031203e-07
0.00017819494
-1.30581653e-06
6.72728503e-07
0.000178343511
-1.98011639e-06
5.66589684e-07
0.000178613873
-2.54912527e-06
4.74854368e-07
0.000178990815
-2.99844037e-06
3.95560071e-07
0.000179455819
-3.31389905e-06
3.27195416e-07
0.000179986788
-3.48239937e-06
2.68524265e-07
0.000180558122
-3.49305711e-06
2.18506443e-07
0.000181141211
-3.33861749e-06
1.76254598e-07
0.000181705426
-3.016966e-06
1.40987147e-07
0.000182219597
-2.53252237e-06
1.11991786e-07
-1.89724008e-06
8.85945125e-08
0.000182653895
0.000434722493
1.44291945e-06
6.55925132e-05
0.0003578548
3.71719509e-06
7.76753606e-05
0.000296622431
5.34007121e-06
6.23744488e-05
0.00025306315
6.39467598e-06
4.48908429e-05
0.000224155513
6.96059196e-06
3.03102365e-05
0.000205997166
7.11368742e-06
1.95455923e-05
0.000194941798
6.93259254e-06
1.23725696e-05
0.000188261635
6.49236993e-06
7.8993906e-06
0.000184168701
5.85854554e-06
5.20614369e-06
0.000181573715
5.08615488e-06
3.60757277e-06
0.00017985129
4.22016309e-06
2.64802897e-06
0.000178659822
3.29641791e-06
2.04813808e-06
0.000177818771
2.34350135e-06
1.64861266e-06
0.000177234748
1.38483087e-06
1.36233515e-06
0.000176859967
4.40422567e-07
1.14254615e-06
0.000176669377
-4.71727492e-07
9.64513194e-07
0.000176648318
-1.3344912e-06
8.15134543e-07
0.000176786003
-2.13068634e-06
6.87184479e-07
0.000177071945
-2.84249578e-06
5.76437689e-07
0.000177493827
-3.45118534e-06
4.8017781e-07
0.00017803612
-3.93721019e-06
3.96475915e-07
0.000178679121
-4.28076701e-06
3.23867039e-07
0.000179398365
-4.46282643e-06
2.61183472e-07
0.000180164484
-4.46664738e-06
2.0747125e-07
0.00018094364
-4.27970719e-06
1.61933587e-07
0.000181698662
-3.8958696e-06
1.23881983e-07
0.000182390942
-3.31749364e-06
9.26907494e-08
-2.55706955e-06
6.77503999e-08
0.000182983022
0.000434643274
1.18096896e-06
6.56186772e-05
0.000357574512
3.04489529e-06
7.7741062e-05
0.000296074726
4.38130935e-06
6.24585492e-05
0.000252236745
5.25992211e-06
4.49727351e-05
0.000223075869
5.74099643e-06
3.03804719e-05
0.000204706722
5.87849965e-06
1.96043348e-05
0.000193487184
5.72870156e-06
1.24234294e-05
0.000186687135
5.34675498e-06
7.94566379e-06
0.000182513372
4.78242437e-06
5.24988434e-06
0.000179870722
4.07917464e-06
3.64962951e-06
0.00017812845
3.27404533e-06
2.68839018e-06
0.000176940572
2.39789681e-06
2.08639841e-06
0.000176123232
1.4765265e-06
1.6843142e-06
0.000175580771
5.32181314e-07
1.39511082e-06
0.000175264116
-4.15091641e-07
1.17216847e-06
0.000175147812
-1.346257e-06
9.90833237e-07
0.000175217549
-2.24222628e-06
8.37997665e-07
0.000175463369
-3.08300358e-06
7.06497247e-07
0.000175875777
-3.84702588e-06
5.92122099e-07
0.000176443256
-4.51082543e-06
4.92160619e-07
0.000177150448
-5.0491115e-06
4.04709152e-07
0.000177976721
-5.43538669e-06
3.28346739e-07
0.000178895129
-5.64320311e-06
2.61969003e-07
0.000179871893
-5.64812236e-06
2.04710633e-07
0.000180866649
-5.43034724e-06
1.5588387e-07
0.000181833697
-4.97784211e-06
1.14924801e-07
0.000182724417
-4.28955002e-06
8.1336152e-08
-3.37809095e-06
5.46204219e-08
0.000183490818
0.000434581225
9.60161281e-07
6.56395835e-05
0.000357354605
2.47784698e-06
7.77936693e-05
0.000295642447
3.56732389e-06
6.25261442e-05
0.000251577917
4.28513717e-06
4.50393151e-05
0.000222203796
4.67642265e-06
3.04386953e-05
0.000203648724
4.77946413e-06
1.96541081e-05
0.000192275682
4.63448595e-06
1.24672574e-05
0.000185354736
4.28177505e-06
7.98592599e-06
0.000181090402
3.75863093e-06
5.28812691e-06
0.00017838434
3.09871767e-06
3.68651845e-06
0.000176602683
2.33176939e-06
2.72393256e-06
0.000175396806
1.48347985e-06
2.12029437e-06
0.000174580872
5.76244277e-07
1.7162154e-06
0.000174058005
-3.69712627e-07
1.42476079e-06
0.000173778745
-1.33521887e-06
1.19938649e-06
0.000173718115
-2.30104737e-06
1.01542038e-06
0.000173863002
-3.24692413e-06
8.59811193e-07
0.000174205164
-4.15056558e-06
7.25399218e-07
0.000174737067
-4.9868856e-06
6.07956471e-07
0.000175448972
-5.72749357e-06
5.04763417e-07
0.000176326577
-6.34064357e-06
4.1392654e-07
0.000177348961
-6.79182717e-06
3.34056385e-07
0.000178486862
-7.04521494e-06
2.64110771e-07
0.000179701539
-7.06612066e-06
2.03321204e-07
0.000180944602
-6.82454715e-06
1.51137143e-07
0.000182159255
-6.29966118e-06
1.07165584e-07
0.000183283321
-5.48471278e-06
7.1096507e-08
-4.39150088e-06
4.26050218e-08
0.000184254126
0.000434531322
7.72275279e-07
6.56565642e-05
0.000357177446
1.99523191e-06
7.78364922e-05
0.000295292462
2.87100659e-06
6.25813021e-05
0.00025104001
3.44353916e-06
4.50940509e-05
0.000221483725
3.74553172e-06
3.04871764e-05
0.000202763523
3.8035114e-06
1.96961553e-05
0.00019124741
3.64590249e-06
1.25046961e-05
0.000184206898
3.30175095e-06
8.02053648e-06
0.000179845973
2.79844974e-06
5.32110558e-06
0.000177064905
2.16138631e-06
3.7183986e-06
0.000175228323
1.41362547e-06
2.75472588e-06
0.000173986323
5.7572033e-07
2.14975917e-06
0.000173152207
-3.33742773e-07
1.74410199e-06
0.000172628893
-1.29726477e-06
1.45086587e-06
0.000172367554
-2.29735223e-06
1.22347309e-06
0.000172344661
-3.31546491e-06
1.03730944e-06
0.00017254936
-4.33096276e-06
8.79340118e-07
0.000172976358
-5.31993293e-06
7.42369331e-07
0.000173621459
-6.2541266e-06
6.2213977e-07
0.000174478189
-7.10013477e-06
5.15910545e-07
0.000175534784
-7.81901639e-06
4.2177743e-07
0.000176771278
-8.36669038e-06
3.38369738e-07
0.000178156782
-8.69542977e-06
2.64709841e-07
0.000179647331
-8.75681624e-06
2.00146471e-07
0.000181184883
-8.50640747e-06
1.44307815e-07
0.000182698275
-7.91009438e-06
9.7041007e-08
0.000184106859
-6.95161395e-06
5.83175405e-08
-5.6399602e-06
2.80887151e-08
0.000185327229
0.000434490143
6.11521039e-07
6.56706116e-05
0.000357031034
1.58235529e-06
7.7871987e-05
0.000295001963
2.27296972e-06
6.26271088e-05
0.000250590263
2.71549828e-06
4.51397415e-05
0.000220875673
2.93212263e-06
3.05279994e-05
0.000202007079
2.9401931e-06
1.97319126e-05
0.000190356998
2.75919988e-06
1.25367837e-05
0.000183198872
2.40953564e-06
8.05034112e-06
0.000178737105
1.91063086e-06
5.34958561e-06
0.000175871691
1.2808038e-06
3.74599563e-06
0.000173966832
5.37032849e-07
2.78145118e-06
0.000172672297
-3.05201468e-07
2.17545617e-06
0.000171801473
-1.23149708e-06
1.76857866e-06
0.000171258029
-2.22767539e-06
1.47385376e-06
0.000170994671
-3.27875289e-06
1.24475871e-06
0.000170990356
-4.36786982e-06
1.0567199e-06
0.000171237764
-5.47502789e-06
8.96656851e-07
0.000171736099
-6.5756046e-06
7.57336589e-07
0.000172486361
-7.63883747e-06
6.34448765e-07
0.00017348749
-8.6264641e-06
5.25199555e-07
0.000174732556
-9.4917391e-06
4.27656967e-07
0.000176204714
-1.01793073e-05
3.40457903e-07
0.000177873041
-1.0626445e-05
2.62687861e-07
0.000179688721
-1.07663328e-05
1.93836525e-07
0.000181582514
-1.0533973e-05
1.3377193e-07
0.000183464796
-9.87506668e-06
8.26901223e-08
0.000185229607
-8.75742754e-06
4.10022357e-08
-7.1833071e-06
9.11541374e-09
0.000186763838
0.000434455317
4.73744527e-07
6.56824601e-05
0.000356907051
1.22865423e-06
7.7901968e-05
0.000294755004
1.7591458e-06
6.26658719e-05
0.000250205426
2.08652087e-06
4.51785557e-05
0.000220350722
2.22393617e-06
3.05628913e-05
0.000201346875
2.18135276e-06
1.97626873e-05
0.000189570217
1.97130185e-06
1.25645562e-05
0.000182296146
1.60737237e-06
8.07623387e-06
0.000177729917
1.10246569e-06
5.37439435e-06
0.000174771849
4.68775826e-07
3.7700949e-06
0.000172786311
-2.82346387e-07
2.80491679e-06
0.000171423403
-1.14047948e-06
2.19818538e-06
0.000170497321
-2.09571488e-06
1.7902998e-06
0.000169913182
-3.13786522e-06
1.49432914e-06
0.000169626028
-4.25541622e-06
1.2638168e-06
0.000169618343
-5.43432696e-06
1.07414226e-06
0.000169887735
-6.65660927e-06
9.12188583e-07
0.000170439759
-7.89827626e-06
7.70647131e-07
0.000171282994
-9.12719667e-06
6.45123907e-07
0.000172424754
-1.0300972e-05
5.32748056e-07
0.000173866347
-1.13648619e-05
4.31529637e-07
0.000175597598
-1.22506472e-05
3.40088446e-07
0.000177590612
-1.28770256e-05
2.57565649e-07
0.00017979337
-1.31527102e-05
1.83619415e-07
0.000182124423
-1.29834705e-05
1.18444082e-07
0.000184470775
-1.22841748e-05
6.2755168e-08
0.000186691609
-1.09959302e-05
1.76687452e-08
-9.10663259e-06
-1.56560252e-08
0.00018863059
0.000434425184
3.55911846e-07
6.5692649e-05
0.000356799677
9.26398704e-07
7.79277642e-05
0.000294540357
1.31917101e-06
6.26992949e-05
0.000249868947
1.54580081e-06
4.52121311e-05
0.000219887982
1.61169398e-06
3.0593208e-05
0.000200759031
1.52074685e-06
1.97895566e-05
0.000188861499
1.27993432e-06
1.25889e-05
0.000181472508
8.97370567e-07
8.09899222e-06
0.000176798221
3.80509676e-07
5.39624251e-06
0.000173739452
-2.63902425e-07
3.79144657e-06
0.000171661024
-1.02979435e-06
2.82587599e-06
0.000170213776
-1.91177583e-06
2.21854383e-06
0.000169213033
-2.90479277e-06
1.80982044e-06
0.000168565738
-4.00342602e-06
1.51285559e-06
0.000168229915
-5.2007435e-06
1.28114968e-06
0.000168192606
-6.4870633e-06
1.09004568e-06
0.000168457767
-7.84811578e-06
9.2634524e-07
0.000169039252
-9.26240301e-06
7.82641033e-07
0.000169956173
-1.06985418e-05
6.54423858e-07
0.000171228162
-1.21116641e-05
5.38702655e-07
0.000172869635
-1.3439718e-05
4.33382671e-07
0.000174882629
-1.46006679e-05
3.37026543e-07
0.000177247739
-1.54909493e-05
2.48812872e-07
0.000179913741
-1.59873113e-05
1.68598535e-07
0.000182787481
-1.59542368e-05
9.70251956e-08
0.000185727196
-1.52594793e-05
3.55899063e-08
0.000188544025
-1.37992873e-05
-1.34724487e-08
-1.1532557e-05
-4.76965169e-08
0.000191017645
0.000434398584
2.55759701e-07
6.57015688e-05
0.000356704837
6.69808462e-07
7.79503378e-05
0.000294350135
9.4525838e-07
6.27286158e-05
0.00024956911
1.08515286e-06
4.52416731e-05
0.000219472525
1.08830854e-06
3.06199709e-05
0.000200226301
9.53619001e-07
1.98133528e-05
0.000188212179
6.83544928e-07
1.26105111e-05
0.0001807086
2.81733634e-07
8.11921538e-06
0.00017592242
-2.49094462e-07
5.41578412e-06
0.000172754855
-9.07038936e-07
3.81070066e-06
0.00017057122
-1.69095913e-06
2.84479963e-06
0.000169023042
-2.60055703e-06
2.23695865e-06
0.000167926753
-3.63611033e-06
1.82760641e-06
0.00016719126
-4.79777942e-06
1.52984555e-06
0.000166777916
-6.08453667e-06
1.29713727e-06
0.000166678959
-7.49285964e-06
1.10475328e-06
0.000166905851
-9.01440243e-06
9.39394375e-07
0.000167483059
-1.06331276e-05
7.93516457e-07
0.00016844359
-1.2321519e-05
6.62445639e-07
0.000169824206
-1.40352901e-05
5.43009736e-07
0.000171659201
-1.57076558e-05
4.32941639e-07
0.000173971197
-1.72433477e-05
3.30683328e-07
0.000176758508
-1.8513677e-05
2.35415708e-07
0.000179978942
-1.93549773e-05
1.47231614e-07
0.00018353163
-1.95743301e-05
6.74047602e-08
0.00018724133
-1.89677922e-05
-1.3882112e-09
0.000190853286
-1.73561508e-05
-5.50927402e-08
-1.46410873e-05
-8.88881194e-08
0.000194050704
0.000434374716
1.71547389e-07
6.5709497e-05
0.000356619727
4.54426005e-07
7.79703721e-05
0.000294178893
6.31380376e-07
6.27547131e-05
0.000249297808
6.98195723e-07
4.52680421e-05
0.000219093987
6.48213526e-07
3.06439171e-05
0.000199736674
4.76250072e-07
1.98346822e-05
0.000187609206
1.81132815e-07
1.262988e-05
0.000179990876
-2.37406244e-07
8.13746956e-06
0.000175088817
-7.8060066e-07
5.4335645e-06
0.000171804396
-1.45081089e-06
3.82819228e-06
0.000169503077
-2.2516211e-06
2.86198086e-06
0.000167836654
-3.18792428e-06
2.25378949e-06
0.000166622309
-4.2657361e-06
1.84397063e-06
0.000165770625
-5.49166843e-06
1.54557325e-06
0.000165246128
-6.87204066e-06
1.31199995e-06
0.000165046324
-8.4114878e-06
1.11843247e-06
0.000165191091
-1.0110602e-05
9.51432105e-07
0.000165717412
-1.19627144e-05
8.03265617e-07
0.000166675715
-1.39488458e-05
6.69023276e-07
0.000168125806
-1.60306435e-05
5.45261564e-07
0.000170130639
-1.81419271e-05
4.29438165e-07
0.000172745576
-2.01780575e-05
3.19771528e-07
0.000176001588
-2.1985068e-05
2.1537852e-07
0.000179881083
-2.3351105e-05
1.1663209e-07
0.000184286788
-2.40057568e-05
2.57207977e-08
0.000189009484
-2.36376164e-05
-5.28721657e-08
0.000193705522
-2.1940434e-05
-1.11756635e-07
-1.87037549e-05
-1.41541355e-07
0.00019790973
0.000434353052
1.0186967e-07
6.5716626e-05
0.00035654249
2.76650487e-07
7.79883384e-05
0.000294023032
3.72653069e-07
6.27781864e-05
0.000249049701
3.79704673e-07
4.52918225e-05
0.000218745592
2.86775914e-07
3.06655473e-05
0.000199282314
8.55921152e-08
1.98539355e-05
0.000187044255
-2.28304568e-07
1.26474965e-05
0.000179310905
-6.5826226e-07
8.15420571e-06
0.000174289234
-1.20871346e-06
5.44978334e-06
0.000170880238
-1.88591006e-06
3.84409537e-06
0.000168448858
-2.69792508e-06
2.87768341e-06
0.00016664646
-3.65479084e-06
2.26926359e-06
0.000165290194
-4.76856709e-06
1.85909742e-06
0.00016429145
-6.05310171e-06
1.56017608e-06
0.000163617034
-7.523448e-06
1.32582337e-06
0.000163269173
-9.19472217e-06
1.13109491e-06
0.000163276193
-1.1079984e-05
9.62362006e-07
0.000163688551
-1.31866994e-05
8.11626369e-07
0.000164577171
-1.55110976e-05
6.73631696e-07
0.000166031501
-1.80294951e-05
5.44520824e-07
0.000168154102
-2.06858368e-05
4.21308145e-07
0.000171049578
-2.33753514e-05
3.01817283e-07
0.000174804764
-2.59252435e-05
1.84988579e-07
0.000179454362
-2.80722166e-05
7.15130711e-08
0.000184930563
-2.94467416e-05
-3.52174139e-08
0.000191001562
-2.95806413e-05
-1.27975643e-07
0.000197209751
-2.79553863e-05
-1.93238199e-07
-2.41422312e-05
-2.1269181e-07
0.000202860918
0.000434333294
4.54788792e-08
6.57230967e-05
0.000356472008
1.33388345e-07
7.80045494e-05
0.000293880392
1.64852268e-07
6.27994169e-05
0.000248821618
1.25107996e-07
4.53133715e-05
0.000218423358
-1.13205189e-10
3.06851497e-05
0.000198858942
-2.21538006e-07
1.98715456e-05
0.000186513079
-5.46168429e-07
1.26637267e-05
0.000178664902
-9.79580192e-07
8.16949473e-06
0.000173520673
-1.52899153e-06
5.46450746e-06
0.000169980249
-2.20407395e-06
3.85858736e-06
0.000167407198
-3.0169385e-06
2.89206396e-06
0.000165451437
-3.98252712e-06
2.28349731e-06
0.000163928815
-5.11901095e-06
1.8730653e-06
0.000162750011
-6.4479832e-06
1.57368446e-06
0.000161882403
-7.99441083e-06
1.33857049e-06
0.000161331179
-9.78610335e-06
1.14260546e-06
0.000161131535
-1.18522329e-05
9.71892367e-07
0.000161347037
-1.4220246e-05
8.18044297e-07
0.000162070841
-1.69101814e-05
6.75279348e-07
0.0001634274
-1.99251379e-05
5.39082622e-07
0.000165570983
-2.32351373e-05
4.05717066e-07
0.000168677938
-2.67546181e-05
2.72311291e-07
0.000172925019
-3.03097996e-05
1.37474763e-07
0.000178445424
-3.35950386e-05
2.41595356e-09
0.000185254359
-3.61284671e-05
-1.27210477e-07
0.000193136462
-3.72229456e-05
-2.39800477e-07
0.000201503907
-3.60114726e-05
-3.11360811e-07
-3.16422786e-05
-3.11208826e-07
0.00020931516
0.00043431544
1.14383359e-09
6.57288957e-05
0.000356407767
2.18202459e-08
7.80192414e-05
0.000293749835
4.17305251e-09
6.28186114e-05
0.000248612134
-7.01130258e-08
4.53329232e-05
0.000218125766
-2.16875302e-07
3.07031305e-05
0.00019846524
-4.48770993e-07
1.98877588e-05
0.000186014975
-7.74423699e-07
1.26785201e-05
0.000178053281
-1.20120031e-06
8.1833139e-06
0.00017278498
-1.73853929e-06
5.47784823e-06
0.000169107968
-2.39882806e-06
3.8717663e-06
0.00016638343
-3.19758769e-06
2.90518699e-06
0.000164258516
-4.15413885e-06
2.29652539e-06
0.000162546051
-5.2924166e-06
1.88586934e-06
0.000161153776
-6.64174912e-06
1.58604058e-06
0.00016004686
-8.23760216e-06
1.35010714e-06
0.000159230133
-1.01220828e-05
1.15270634e-06
0.000158742097
-1.23437484e-05
9.79550757e-07
0.000158656166
-1.49559798e-05
8.21664316e-07
0.000159086245
-1.80126873e-05
6.72427181e-07
0.000160194259
-2.1559358e-05
5.26205324e-07
0.000162197199
-2.56159717e-05
3.77894033e-07
0.000165368153
-3.01487975e-05
2.23225395e-07
0.000170020844
-3.50223936e-05
5.99023065e-08
0.000176463858
-3.99280457e-05
-1.10008821e-07
0.000184901657
-4.42906908e-05
-2.75577008e-07
0.000195244106
-4.71513253e-05
-4.1407173e-07
0.000206804957
-4.70980048e-05
-4.74322012e-07
-4.24299742e-05
-4.16404112e-07
0.000218009052
0.0004342991