/*--------------------------------*- C++ -*----------------------------------*\
| =========                 |                                                 |
| \\      /  F ield         | foam-extend: Open Source CFD                    |
|  \\    /   O peration     | Version:     4.1                                |
|   \\  /    A nd           | Web:         http://www.foam-extend.org         |
|    \\/     M anipulation  |                                                 |
\*---------------------------------------------------------------------------*/
FoamFile
{
    version     2.0;
    format      ascii;
    class       volScalarField;
    location    "0.7";
    object      rAU;
}
// * * * * * * * * * * * * * * * * * * * * * * * * * * * * * * * * * * * * * //

dimensions      [0 0 1 0 0 0 0];

internalField   nonuniform List<scalar> 
35840
(
0.000714285856
0.000836637835
0.000924549039
0.000999613695
0.00105386562
0.00109046538
0.00111504894
0.00113179054
0.00114332309
0.00115144605
0.00115736799
0.00116184262
0.00116533045
0.001168119
0.00117039244
0.00117227226
0.00117384214
0.00117509968
0.00117615732
0.00117706823
0.00117785819
0.0011785493
0.00117916077
0.00117970944
0.00118021013
0.00118067582
0.00118111782
0.00118154584
0.000739083886
0.000819497761
0.000880892332
0.000951173178
0.0010161244
0.00106944658
0.00111047021
0.00114132028
0.00116443162
0.00118186299
0.00119522564
0.00120568053
0.00121402303
0.00122079559
0.00122637262
0.00123101655
0.0012349157
0.00123813959
0.00124086891
0.00124312742
0.00124500526
0.00124666352
0.00124814271
0.00124947844
0.00125070211
0.00125184127
0.00125291993
0.00125395871
0.000753175787
0.000833323018
0.000878398554
0.000929314406
0.000978234685
0.00102100083
0.00105596516
0.00108369741
0.00110556893
0.0011229127
0.00113682497
0.00114813842
0.0011574563
0.0011652134
0.0011717276
0.00117723495
0.00118191407
0.00118590318
0.00118931193
0.00119215569
0.0011943694
0.0011962801
0.00119800406
0.00119957811
0.001201035
0.00120240359
0.00120370898
0.00120497261
0.000760309171
0.000850113029
0.000895623445
0.000941324673
0.000982256752
0.0010167595
0.00104457541
0.00106663054
0.00108422906
0.00109849922
0.00111028121
0.00112016433
0.00112855195
0.00113572519
0.00114188881
0.00114719876
0.00115177826
0.00115572773
0.00115913105
0.00116205971
0.00116420832
0.00116600241
0.00116764511
0.00116916827
0.00117060081
0.0011719685
0.00117329376
0.00117459548
0.000763382795
0.000860199569
0.000909774887
0.000956401006
0.000995497022
0.00102638274
0.00104993232
0.00106781575
0.0010816906
0.00109281562
0.00110203493
0.00110987652
0.00111665895
0.00112257704
0.00112775795
0.0011322928
0.00113625318
0.00113969953
0.00114268516
0.00114524148
0.00114687498
0.0011482944
0.00114962003
0.00115087691
0.00115208856
0.00115327631
0.00115445866
0.00115565086
0.000765074463
0.000866247057
0.000919348403
0.0009680147
0.0010075088
0.0010374112
0.0010591161
0.00107478391
0.00108639241
0.00109538066
0.00110267998
0.00110884614
0.00111419198
0.00111888975
0.00112303691
0.00112669361
0.00112990259
0.00113269898
0.00113511472
0.00113692968
0.00113790667
0.00113882933
0.00113971725
0.00114059057
0.00114146884
0.00114237
0.00114330948
0.00114429949
0.000766121989
0.000870082025
0.000925796554
0.000976358879
0.00101677629
0.00104668631
0.00106772898
0.00108235573
0.00109276331
0.0011005252
0.0011066472
0.00111172161
0.00111607535
0.00111988198
0.00112323285
0.00112617806
0.00112874861
0.00113096769
0.00113285599
0.00113365592
0.00113408925
0.00113451609
0.00113495462
0.00113542388
0.00113594253
0.00113652767
0.00113719375
0.00113795159
0.000766817414
0.000872665456
0.000930310465
0.000982462691
0.00102385208
0.00105409123
0.00107495788
0.00108909763
0.00109886605
0.00110593675
0.00111137061
0.00111578694
0.00111952414
0.00112275894
0.0011255814
0.00112803769
0.00113015349
0.00113194602
0.00113308068
0.0011330997
0.00113308044
0.00113308246
0.00113312656
0.00113323418
0.00113342621
0.00113372167
0.00113413637
0.00113468171
0.000767311123
0.000874505841
0.00093360067
0.000987055381
0.00102935025
0.00106003011
0.00108094531
0.00109487397
0.00110429182
0.00111095403
0.0011159683
0.00111997724
0.00112332886
0.00112620234
0.00112868647
0.00113082424
0.00113263707
0.00113403939
0.0011340861
0.00113370307
0.00113333013
0.00113299151
0.00113271298
0.00113252085
0.00113244065
0.0011324956
0.00113270494
0.00113308244
0.000767679485
0.000875876083
0.000936083071
0.000990601988
0.00103370937
0.00106486588
0.00108595091
0.00109982973
0.0011090674
0.00111548582
0.00112023446
0.00112397862
0.00112707683
0.00112971178
0.00113197184
0.00113389731
0.00113550566
0.00113590676
0.00113526318
0.00113459977
0.00113394476
0.00113332853
0.00113278321
0.00113234164
0.00113203591
0.00113189538
0.00113194466
0.00113220142
0.000767964782
0.00087693356
0.000938013711
0.000993407403
0.00103723191
0.00106886393
0.00109018591
0.001104118
0.00111328988
0.0011195762
0.00112416241
0.00112773533
0.00113066485
0.0011331386
0.00113524586
0.00113702524
0.00113779034
0.00113715079
0.00113628408
0.00113538375
0.00113448428
0.00113362289
0.00113283926
0.00113217439
0.00113166882
0.00113136025
0.00113128067
0.00113145347
0.000768192448
0.000877774079
0.000939555011
0.000995674748
0.00104012792
0.00107221535
0.00109380868
0.00110786118
0.00111704827
0.00112328519
0.00112778716
0.00113126025
0.00113408558
0.00113645647
0.00113846405
0.00113953277
0.00113907496
0.00113809643
0.00113702708
0.00113590498
0.00113477112
0.00113367033
0.00113265113
0.00113176459
0.00113106212
0.00113059242
0.00113039765
0.00113050927
0.000768378463
0.000878458171
0.00094081271
0.000997541926
0.00104254595
0.00107506025
0.00109693928
0.00111115522
0.00112041552
0.00112666621
0.00113114656
0.00113457915
0.00113735542
0.00113967439
0.00114108834
0.00114088582
0.00113990081
0.00113875264
0.00113748326
0.00113613596
0.0011347583
0.00113340349
0.00113213044
0.00113100262
0.00113008543
0.00112944226
0.00112912929
0.00112918954
0.000768533232
0.00087902546
0.000941857568
0.00099910438
0.00104459261
0.00107750267
0.00109966971
0.00111407584
0.00112345092
0.00112976426
0.00113427432
0.00113771755
0.0011404945
0.00114232654
0.0011424683
0.00114160335
0.00114048719
0.00113916779
0.00113769005
0.00113610165
0.00113445654
0.00113281691
0.00113125375
0.00112984579
0.00112867647
0.00112782897
0.00112737898
0.00112738621
0.000768663759
0.000879502669
0.000942738065
0.00100042922
0.00104634515
0.00107962029
0.00110207066
0.00111668287
0.0011262025
0.0011326166
0.00113719902
0.00114069781
0.00114308494
0.0011436938
0.00114310131
0.00114215091
0.00114090283
0.00113940503
0.00113770355
0.00113584905
0.00113390113
0.00113193128
0.00113002422
0.00112827728
0.00112679723
0.00112569395
0.00112507072
0.00112501169
0.000768774874
0.000879908263
0.000943488071
0.00100156426
0.00104785994
0.00108147123
0.00110419629
0.0011190231
0.00112870848
0.00113525326
0.0011399438
0.00114313885
0.00114439728
0.00114426302
0.00114363599
0.00114260287
0.00114122067
0.00113953476
0.00113758978
0.0011354371
0.00113314045
0.0011307802
0.00112845615
0.00112628804
0.00112441261
0.00112297603
0.0011221209
0.0011219679
0.000768869979
0.000880255256
0.000944131637
0.00100254392
0.00104917826
0.0010830988
0.00110608764
0.00112113243
0.00113099831
0.00113769715
0.00114215731
0.00114435432
0.00114491618
0.00114479934
0.00114414514
0.0011430342
0.00114151733
0.00113963401
0.00113742404
0.00113493609
0.00113223509
0.00112940859
0.00112657202
0.00112387138
0.00112148162
0.00111959835
0.00111842082
0.00111810622
0.000768951516
0.000880552974
0.000944686053
0.00100339314
0.00105033036
0.00108453505
0.00110777525
0.00112303748
0.00113309341
0.00113962131
0.00114323827
0.00114482889
0.00114545651
0.00114536909
0.0011447
0.00114352126
0.00114187427
0.00113978848
0.00113729391
0.00113443146
0.00113126236
0.00112787744
0.00112440644
0.00112102478
0.00111795529
0.00111546073
0.00111380689
0.00111324495
0.000769021265
0.000880808203
0.000945163878
0.00100413008
0.00105133827
0.00108580333
0.00110928111
0.00112475691
0.00113468709
0.00114053804
0.00114366831
0.00114536487
0.0011460739
0.00114603475
0.00114537102
0.00114414334
0.00114237988
0.00114009518
0.00113730341
0.00113403011
0.00113032456
0.00112627346
0.00112201595
0.00111775763
0.0011137794
0.00111043379
0.0011080587
0.00110713967
0.000769080555
0.000881025964
0.000945574327
0.00100476795
0.00105221792
0.00108692022
0.00111062033
0.00112600159
0.0011354201
0.00114091931
0.00114418441
0.00114600467
0.00114681823
0.00114685517
0.00114622782
0.00114498275
0.00114313089
0.0011406661
0.0011375787
0.0011338686
0.00112956058
0.00112472387
0.00111949559
0.00111410664
0.00110890411
0.00110429734
0.00110091969
0.00109942508
0.000769130408
0.00088121006
0.000945924255
0.00100531642
0.00105298071
0.00108789712
0.0011115205
0.00112654305
0.00113574674
0.00114139682
0.0011448147
0.00114678315
0.00114773278
0.0011478843
0.00114733779
0.00114612376
0.00114423219
0.0011416298
0.00113827307
0.00113412256
0.00112916081
0.00112341753
0.00111700501
0.00111016304
0.001103264
0.00109690148
0.00109201217
0.00108957297
0.000769171646
0.000881363469
0.000946218881
0.00100578264
0.00105363471
0.00108847911
0.001111875
0.00112680974
0.00113616769
0.00114198509
0.00114557875
0.00114772638
0.00114885226
0.00114916852
0.00114876324
0.0011476499
0.0011457944
0.00114313036
0.00113956994
0.0011350167
0.00112938538
0.00112263301
0.0011148073
0.00110611719
0.00109686981
0.00108803184
0.00108082839
0.00107680762
0.000769205
0.000881488558
0.00094646233
0.00100610123
0.00105394481
0.00108866353
0.00111207892
0.00112716014
0.00113668612
0.00114269016
0.00114648647
0.00114884976
0.00115020008
0.00115074309
0.0011505566
0.00114963801
0.00114792838
0.00114532399
0.00114168285
0.00113683254
0.0011305877
0.0011227833
0.00111333574
0.00110221191
0.00108990652
0.0010774717
0.00106663433
0.00105988121
0.000769212124
0.000881540427
0.000946556286
0.00100620489
0.0010539877
0.00108880589
0.00111235098
0.0011275892
0.00113729763
0.00114350877
0.00114753662
0.00115015562
0.00115178473
0.00115262672
0.00115275318
0.00115214938
0.0011507346
0.00114836817
0.00114484828
0.00113991019
0.00113323292
0.00112446478
0.00111320433
0.00109918899
0.00108284247
0.00106515509
0.00104835159
0.00103649331
0.000769199116
0.000881524511
0.000946534898
0.00100621892
0.00105407501
0.00108899929
0.00111268124
0.00112808576
0.00113798991
0.00114442763
0.00114871539
0.00115163065
0.00115359548
0.00115481511
0.00115536154
0.00115521596
0.00115428497
0.00115239952
0.00114930266
0.00114463086
0.0011378968
0.00112848891
0.00111536218
0.00109817091
0.00107665355
0.00105142766
0.00102473099
0.00100306894
0.000769190856
0.00088150775
0.000946533972
0.00100626373
0.00105419781
0.00108923216
0.0011130555
0.00112863277
0.00113874276
0.00114542302
0.00114999528
0.00115324369
0.00115559843
0.001157274
0.00115835216
0.00115882282
0.00115859677
0.00115749785
0.00115523765
0.00115137338
0.00114525009
0.00113567742
0.0011213656
0.00110094941
0.00107292205
0.00103669074
0.000994047464
0.00095709792
0.000769186993
0.000881504194
0.000946552221
0.00100633135
0.0010543451
0.00108949014
0.00111345561
0.0011292077
0.00113952848
0.00114646105
0.00115133497
0.00115494472
0.00115773375
0.0011599334
0.00116164647
0.00116288835
0.00116359898
0.00116363189
0.00116272002
0.00116041268
0.00115593021
0.00114752218
0.0011336627
0.00111144033
0.00107684872
0.00102565078
0.000958020919
0.000904602665
0.000769186639
0.000881510701
0.000946583886
0.00100641288
0.00105450433
0.00108975659
0.00111386015
0.00112978347
0.00114031302
0.00114749892
0.00115268058
0.00115666577
0.00115991567
0.00116268542
0.00116510987
0.00116724767
0.00116909703
0.00117058914
0.00117155808
0.00117167844
0.00117002571
0.00116519948
0.00115532081
0.00113658242
0.00110254273
0.00104382624
0.000954813729
0.000877982663
0.00073980277
0.000821721113
0.000884287263
0.00095519738
0.00102016396
0.0010730437
0.00111337864
0.00114347889
0.00116589678
0.00118274201
0.00119563568
0.00120572983
0.00121380441
0.00122038571
0.00122583366
0.00123039862
0.00123425919
0.00123754718
0.00124036337
0.00124278741
0.0012448843
0.00124670856
0.0012483069
0.00124971999
0.00125098366
0.00125212968
0.00125318623
0.00125417817
0.000752948602
0.000758101114
0.000763154088
0.000796315778
0.00084304373
0.000894038776
0.000942836421
0.00098619913
0.0010231339
0.00105382936
0.00107906735
0.0010998154
0.00111697141
0.00113127417
0.00114330216
0.00115349886
0.00116220236
0.00116967247
0.00117611242
0.00118168476
0.00118652274
0.00119073815
0.00119442685
0.00119767261
0.00120054973
0.00120312484
0.00120545798
0.00120760331
0.00077070617
0.000770885743
0.000754231018
0.000761612234
0.000782824184
0.000811821132
0.000843666487
0.00087507448
0.000904269606
0.000930428989
0.00095334107
0.000973169749
0.000990249521
0.00100495431
0.00101763651
0.00102860414
0.00103811614
0.0010463866
0.00105359231
0.00105988045
0.00106537531
0.0010701836
0.00107439853
0.00107810295
0.00108137158
0.00108427263
0.00108686886
0.00108921818
0.000779771176
0.000790745266
0.000774251695
0.000776095717
0.000787817229
0.000805266611
0.000825333599
0.000845959817
0.000865985399
0.000884761578
0.000901959341
0.000917479383
0.000931362491
0.000943717507
0.000954679776
0.000964389376
0.00097297973
0.000980572651
0.000987277285
0.00099319095
0.000998400693
0.00100298504
0.00100701561
0.00101055854
0.00101367565
0.00101642529
0.00101886291
0.00102104138
0.000783420847
0.000802129733
0.000790103854
0.000794030212
0.000805255086
0.000819678204
0.000834856643
0.000849620253
0.000863568363
0.000876577246
0.000888610444
0.000899677013
0.00090980956
0.000919049293
0.000927441142
0.000935032745
0.000941873367
0.000948012726
0.000953500195
0.000958384359
0.000962712832
0.000966532278
0.000969888551
0.000972826968
0.000975392565
0.000977630276
0.000979584986
0.000981301416
0.000785374082
0.000808600458
0.000800136119
0.00080689125
0.000819982321
0.00083497139
0.000849340538
0.000862152994
0.000873378675
0.000883266191
0.000892081415
0.000900039149
0.000907289464
0.000913926126
0.000920004618
0.000925558682
0.000930611399
0.000935181665
0.000939287745
0.000942949092
0.000946187141
0.000949025637
0.000951490759
0.000953611193
0.000955418142
0.000956945264
0.000958228478
0.000959305622
0.000786565596
0.000812610272
0.000806647472
0.000815655038
0.000830620537
0.000846906152
0.000861840568
0.000874484503
0.000884921051
0.000893563089
0.000900845901
0.00090712918
0.000912671016
0.000917637454
0.000922127254
0.000926196082
0.000929874366
0.000933179101
0.000936121232
0.000938710047
0.000940955703
0.000942870625
0.000944470362
0.000945774088
0.000946804876
0.00094758979
0.000948159739
0.000948549094
0.000787349032
0.000815281917
0.00081111454
0.000821858757
0.000838379472
0.000855905117
0.000871656315
0.000884669363
0.000895072423
0.000903355463
0.000910039077
0.000915562157
0.00092024801
0.000924311992
0.000927887699
0.000931053689
0.000933854042
0.000936312611
0.000938442425
0.00094025166
0.000941747393
0.000942937944
0.000943834462
0.000944451985
0.000944810163
0.000944933659
0.000944852211
0.000944600316
0.000787903746
0.000817174133
0.000814331251
0.000826430904
0.000844229339
0.000862840849
0.00087939692
0.000892906937
0.000903525671
0.000911794059
0.000918288347
0.000923497793
0.000927786464
0.000931400347
0.000934494877
0.000937163381
0.000939459213
0.000941411356
0.000943034906
0.000944337983
0.000945326189
0.00094600563
0.000946385054
0.000946477431
0.000946301141
0.000945691415
0.000945057996
0.000944437768
0.000788317466
0.000818579347
0.000816741146
0.000829913864
0.000848770211
0.000868326811
0.000885634233
0.000899668385
0.000910595753
0.000918993013
0.000925478698
0.000930580984
0.000934695148
0.000938090027
0.000940936653
0.000943338216
0.000945353584
0.000947014001
0.000948334521
0.000949321601
0.000949978176
0.000950307262
0.000949711386
0.00094880145
0.00094781805
0.000946607253
0.000945586045
0.000944791459
0.000788638192
0.000819663431
0.000818608505
0.000832644032
0.00085238317
0.000872762763
0.000890761378
0.00090531761
0.000916597568
0.000925200367
0.000931775831
0.000936883057
0.00094094315
0.000944244274
0.000946970671
0.00094923362
0.000951095986
0.000952589899
0.000953728954
0.000954516448
0.00095425307
0.000953303967
0.000951591901
0.000949756414
0.000948058411
0.000946548741
0.000945274742
0.000944277707
0.000788894669
0.000820526008
0.000820097065
0.000834837511
0.000855319649
0.000876417271
0.00089504699
0.000910109995
0.000921764242
0.000930620938
0.000937351753
0.000942539516
0.000946626351
0.000949916847
0.000952606819
0.000954814675
0.000956606631
0.000958015048
0.000958832172
0.000958104309
0.00095642608
0.000954202589
0.000951996292
0.00094987062
0.000947889857
0.000946117518
0.000944613647
0.000943431324
0.000789104793
0.000821229274
0.000821311439
0.000836636847
0.000857750394
0.000879476921
0.000898680972
0.000914228611
0.000926265483
0.000935407804
0.000942341784
0.00094766792
0.000951844992
0.000955191171
0.000957912116
0.000960132346
0.000961920762
0.00096241175
0.000961619397
0.000959336531
0.00095690844
0.000954405296
0.000951899431
0.000949466519
0.000947185104
0.000945134483
0.000943391073
0.000942023551
0.000789280131
0.000821813553
0.000822320577
0.000838138385
0.000859793877
0.000882074225
0.000901800808
0.000917807974
0.000930227452
0.000939676028
0.000946849176
0.000952360395
0.000956681509
0.000960141706
0.000962954845
0.000965250508
0.000965605088
0.000964423341
0.000962181655
0.000959673027
0.00095697374
0.000954161697
0.000951319905
0.000948537978
0.000945911652
0.00094354013
0.000941521261
0.000939944761
0.000789428425
0.000822305837
0.000823171145
0.000839408609
0.000861533693
0.00088430466
0.000904507374
0.000920948343
0.000933745363
0.000943513166
0.000950953042
0.000956688178
0.000961200567
0.000964828483
0.000967536256
0.0009682557
0.000966923281
0.000964899447
0.000962468208
0.000959710936
0.000956707543
0.00095354282
0.000950310739
0.000947116652
0.000944077045
0.000941316433
0.000938961066
0.000937129509
0.00078955499
0.000822724661
0.000823895455
0.000840494241
0.000863029607
0.000886237654
0.000906875204
0.000923724831
0.000936891213
0.000946985832
0.000954713774
0.000960705517
0.000965451446
0.000968684055
0.00096991212
0.000968985964
0.000967387499
0.000965225479
0.000962587857
0.000959554243
0.000956205681
0.000952632169
0.000948938333
0.000945246901
0.000941699267
0.000938452234
0.000935670104
0.000933511654
0.000789663555
0.000823083038
0.000824516305
0.00084142857
0.000864324737
0.000887923966
0.000908959446
0.000926193454
0.000939718919
0.000950143921
0.00095817615
0.000964452109
0.000968601018
0.000970493158
0.000970427423
0.000969490195
0.000967818438
0.000965512541
0.000962653093
0.000959313951
0.000955573585
0.00095152414
0.000947279363
0.000942980337
0.000938797885
0.00093492997
0.000931592302
0.00092898765
0.000789756785
0.000823390275
0.000825050034
0.000842235582
0.00086545039
0.000889400721
0.000910800619
0.0009283954
0.000942267948
0.000953023275
0.000961371362
0.000966933277
0.000969913939
0.000971009834
0.000970996684
0.000970059153
0.000968322312
0.000965874433
0.000962783542
0.000959112368
0.000954931421
0.000950329704
0.000945426324
0.000940380056
0.000935395405
0.000930722341
0.000926635547
0.000923425965
0.000789836624
0.000823653151
0.000825508517
0.000842932715
0.000866429346
0.000890694929
0.00091242808
0.00093036018
0.000944565779
0.00095559546
0.000963238099
0.000967822777
0.000970436128
0.000971643637
0.000971704011
0.000970788168
0.000969006397
0.000966430428
0.000963109921
0.000959089293
0.000954422418
0.000949186695
0.000943499018
0.000937531732
0.000931525494
0.000925794128
0.000920674538
0.000916646715
0.000789904518
0.000823876707
0.000825900521
0.000843532755
0.000867278196
0.000891826052
0.000913862621
0.000932107903
0.000946407003
0.000956915184
0.000963775854
0.000968339385
0.000971112511
0.000972459951
0.000972627301
0.000971770038
0.000969980587
0.000967308764
0.000963779251
0.000959409246
0.00095422371
0.000948274563
0.00094166256
0.000934562875
0.00092724974
0.000920070139
0.000913573326
0.000908384335
0.000789961581
0.000824064797
0.000826232658
0.000844045206
0.000868009051
0.000892807972
0.000915118361
0.000933321357
0.000947257477
0.000957221331
0.000964266565
0.000969022799
0.000971987612
0.000973515041
0.000973837412
0.000973093912
0.000971356122
0.000968647246
0.000964958959
0.000960269095
0.000954558689
0.000947833826
0.000940153798
0.000931673791
0.000922659749
0.000913565165
0.000905144156
0.000898266815
0.000790008699
0.000824220493
0.000826510091
0.000844477314
0.000868630887
0.00089358562
0.000915822704
0.000933787935
0.000947513513
0.000957663362
0.000964916746
0.000969897046
0.000973094493
0.000974853915
0.000975395507
0.000974842166
0.000973242896
0.000970590675
0.000966836753
0.000961905062
0.000955712226
0.000948189495
0.000939317076
0.00092918522
0.000917964397
0.000906318621
0.000895169078
0.00088576423
0.000790028393
0.00082434643
0.00082673702
0.000844787805
0.000868984787
0.000893906605
0.000915994373
0.000933987881
0.000947887568
0.000958243882
0.000965732791
0.00097097389
0.000974452632
0.000976507283
0.000977348479
0.000977084827
0.000975743789
0.000973286413
0.000969617771
0.000964595709
0.000958047701
0.00094978917
0.000939664547
0.000927530894
0.000913601594
0.000898494738
0.000883377005
0.000869989395
0.000790014752
0.000824373589
0.00082680123
0.000844871094
0.000869045822
0.000893936779
0.00091613737
0.000934282473
0.000948372156
0.000958956074
0.000966709417
0.000972250948
0.000976064816
0.000978486773
0.000979722489
0.00097987122
0.000978943676
0.000976872308
0.000973515342
0.000968657343
0.000962013389
0.000953237299
0.000941896191
0.000927602383
0.000910197532
0.000890194585
0.000869052169
0.000849083134
0.000789993912
0.00082432412
0.000826742577
0.000844830397
0.000869053691
0.000894028367
0.00091635104
0.000934658555
0.000948952278
0.00095978324
0.00096782858
0.000973709659
0.00097791367
0.000980779352
0.000982514364
0.000983217226
0.000982892163
0.000981454274
0.000978725089
0.00097441979
0.000968129539
0.000959304061
0.000947003236
0.000930274045
0.000908673683
0.000882224918
0.000851397683
0.000818693104
0.000789979688
0.000824291539
0.000826712648
0.000844826416
0.000869105025
0.000894169469
0.000916620348
0.000935097608
0.00094960551
0.000960698608
0.000969058787
0.000975313698
0.000979958514
0.000983341678
0.000985682024
0.000987089905
0.000987580084
0.000987072672
0.000985380187
0.000982178341
0.000976957611
0.000968764301
0.000956012623
0.00093724661
0.000911016404
0.000875691283
0.000829864696
0.000778757192
0.000789971272
0.000824275385
0.000826706349
0.000844851498
0.000869189174
0.000894345855
0.000916926827
0.000935576162
0.000950302462
0.000961665753
0.000970355263
0.000977008478
0.000982133545
0.000986095793
0.000989135758
0.000991391246
0.000992910902
0.000993654796
0.000993478315
0.000992093013
0.000988961308
0.000982606692
0.000970909088
0.000952080817
0.000922297035
0.000876442804
0.000810204572
0.000746477411
0.0007899677
0.000824272399
0.000826718072
0.000844897183
0.000869294189
0.000894541325
0.000917249116
0.000936066584
0.000951007833
0.000962639893
0.000971661386
0.000978722505
0.00098434859
0.000988928252
0.000992733678
0.000995945957
0.000998673292
0.00100095809
0.00100276982
0.00100397764
0.00100404911
0.00100118254
0.000994038223
0.000980083489
0.000954136004
0.000907437802
0.000830848078
0.000766252205
0.000754520388
0.000837737382
0.000885277892
0.000937747745
0.000987163513
0.00102956175
0.00106360833
0.00109018289
0.00111087763
0.00112714266
0.00114012159
0.00115065777
0.0011593475
0.00116661114
0.00117275012
0.00117798464
0.00118247909
0.00118635943
0.001189725
0.00119265624
0.00119521998
0.00119747305
0.00119946468
0.00120123815
0.00120283195
0.00120428053
0.00120561472
0.00120686207
0.000771501714
0.000773526249
0.000758521648
0.000767402678
0.000789782741
0.000819507388
0.000851607334
0.000882856411
0.000911601327
0.00093714922
0.00095939423
0.00097857309
0.000995062951
0.00100925775
0.00102151548
0.00103214184
0.00104138968
0.00104946578
0.00105653963
0.00106275176
0.00106822063
0.00107304786
0.00107732219
0.00108112241
0.00108451939
0.00108757753
0.00109035563
0.00109290752
0.000791454252
0.00078712137
0.000747909942
0.000730793578
0.000728396889
0.000736331388
0.000750602751
0.000768067567
0.000786670568
0.000805118583
0.000822626132
0.000838786385
0.000853452057
0.00086662808
0.000878398763
0.000888883835
0.000898212504
0.000906509595
0.000913889654
0.000920455492
0.000926298832
0.000931501776
0.000936138453
0.000940276541
0.00094397851
0.000947302574
0.00095030333
0.000953032145
0.000801365126
0.000808450951
0.000768052155
0.000744584032
0.000732836747
0.000729878028
0.0007330158
0.000739980859
0.000749200379
0.00075960422
0.000770437935
0.000781191032
0.000791544624
0.000801314953
0.000810408593
0.000818791495
0.000826466916
0.000833459874
0.000839807048
0.0008455507
0.000850735207
0.000855405245
0.000859604953
0.000863377672
0.000866765947
0.000869811621
0.000872555897
0.000875039317
0.000805283243
0.000820725365
0.00078416871
0.000761968607
0.00074942252
0.000743741162
0.000742672125
0.00074452318
0.000748237785
0.00075315137
0.000758793836
0.000764820327
0.000770982025
0.000777100573
0.000783049424
0.000788741942
0.000794122222
0.000799157276
0.000803830789
0.000808138468
0.000812084671
0.000815680031
0.00081893984
0.000821883002
0.000824531357
0.000826909214
0.00082904298
0.000830960809
0.000807384629
0.000827655767
0.000794254825
0.000774206349
0.000763073483
0.000757942234
0.000756457711
0.000756996361
0.000758677827
0.000761057929
0.000763887811
0.000767010705
0.000770317023
0.000773719888
0.000777144996
0.000780528718
0.000783818239
0.000786971328
0.00078995561
0.000792747615
0.000795331719
0.000797699123
0.000799846975
0.000801777677
0.00080349833
0.000805020292
0.000806358761
0.000807532337
0.000808669316
0.00083193103
0.000800752189
0.000782422196
0.000772689153
0.00076864282
0.000767830263
0.000768566986
0.000769973556
0.000771654111
0.00077344099
0.000775272851
0.000777132083
0.000779010064
0.000780893356
0.000782761971
0.000784591728
0.00078635709
0.000788033518
0.000789599155
0.000791035872
0.000792329833
0.000793471783
0.000794457181
0.000795286233
0.000795963845
0.000796499472
0.000796906839
0.000809515648
0.000834778431
0.000805197649
0.000788192787
0.000779591001
0.0007765117
0.000776463701
0.0007777243
0.000779400847
0.000781103456
0.000782685762
0.000784119606
0.000785426331
0.000786636391
0.000787771944
0.000788843162
0.000789849841
0.000790784375
0.000791634796
0.000792387365
0.000793028575
0.000793546613
0.000793932456
0.000794180682
0.000794290079
0.000794264056
0.000794110842
0.000793843439
0.000810116688
0.000836796283
0.000808393585
0.000792426168
0.000784746229
0.000782483993
0.00078312455
0.000784921037
0.000786974467
0.000788901133
0.000790567437
0.000791962104
0.000793125181
0.000794105611
0.000794942655
0.000795661583
0.000796274918
0.000796785288
0.000797188535
0.000797476533
0.000797639507
0.000797667894
0.00079755385
0.000797292503
0.000796882977
0.000796329185
0.000795640345
0.000794831142
0.000810565677
0.000838295055
0.000810784885
0.000795641081
0.000788723662
0.000787160511
0.000788414032
0.000790714764
0.000793155955
0.0007953586
0.000797200327
0.000798683886
0.000799863607
0.000800801307
0.000801547026
0.000802134655
0.000802583321
0.000802900432
0.000803085008
0.000803130743
0.000803028577
0.000802768863
0.000802343209
0.000801746109
0.000800976351
0.000800038193
0.000798942199
0.000797705647
0.000810913859
0.000839451139
0.00081263616
0.000798155743
0.000791874735
0.00079091439
0.000792715572
0.000795486648
0.00079831002
0.000800807148
0.000802863232
0.000804492134
0.000805760158
0.000806740082
0.000807490944
0.00080805341
0.000808451219
0.000808694445
0.000808783085
0.000808710399
0.000808465814
0.00080803743
0.000807414284
0.000806588411
0.000805556792
0.000803962604
0.000802304263
0.0008006743
0.000811192203
0.000840370642
0.00081411092
0.000800173124
0.000794427876
0.000793989924
0.000796281042
0.000799488979
0.000802683711
0.000805483644
0.000807777688
0.000809587377
0.000810988269
0.000812062154
0.000812875739
0.000813475496
0.000813888962
0.000814128021
0.000814192636
0.000814074401
0.00081375975
0.000813232811
0.000811592854
0.000809810556
0.000807960592
0.000805708145
0.000803573402
0.000801661724
0.0008114201
0.000841119868
0.000815313359
0.000801826275
0.000796536397
0.000796553669
0.000799283854
0.000802896332
0.000806448481
0.000809553651
0.000812101622
0.000814118673
0.000815687073
0.000816895616
0.000817817221
0.00081850313
0.000818983875
0.000819272407
0.000819367796
0.000819173651
0.000817625041
0.000815917338
0.000813180727
0.000810427361
0.000807762969
0.000805242417
0.000802919732
0.000800845547
0.000811610143
0.000841741865
0.000816311991
0.000803204565
0.000798305536
0.000798722056
0.000801846929
0.000805833624
0.000809727729
0.000813136728
0.000815949438
0.000818194871
0.000819960041
0.000821339056
0.00082240977
0.000823227181
0.000823823998
0.000824213414
0.000823219565
0.000821711189
0.000818857972
0.000815903236
0.000812903966
0.000809920794
0.000807018214
0.00080426351
0.000801724411
0.000799465558
0.000811770803
0.000842265496
0.000817153082
0.00080436933
0.000799808892
0.000800577881
0.000804058881
0.000808391976
0.000812612273
0.000816321242
0.000819405917
0.000821896858
0.000823884364
0.000825466791
0.000826726058
0.000827720101
0.000827844034
0.00082693106
0.000824559861
0.000821731051
0.000818702827
0.000815533252
0.000812285356
0.000809028819
0.000805840361
0.000802802497
0.000800000493
0.000797517505
0.000811907915
0.000842710596
0.000817868611
0.000805363485
0.000801098701
0.000802180703
0.000805984269
0.00081063852
0.000815169471
0.000819173034
0.000822534403
0.000825284898
0.000827517519
0.000829334457
0.000830821082
0.00083073256
0.000829570612
0.000827256052
0.000824580688
0.000821599496
0.000818367935
0.000814946162
0.000811402623