/*--------------------------------*- C++ -*----------------------------------*\
| =========                 |                                                 |
| \\      /  F ield         | foam-extend: Open Source CFD                    |
|  \\    /   O peration     | Version:     4.1                                |
|   \\  /    A nd           | Web:         http://www.foam-extend.org         |
|    \\/     M anipulation  |                                                 |
\*---------------------------------------------------------------------------*/
FoamFile
{
    version     2.0;
    format      ascii;
    class       volVectorField;
    location    "0.7";
    object      U;
}
// * * * * * * * * * * * * * * * * * * * * * * * * * * * * * * * * * * * * * //

dimensions      [0 1 -1 0 0 0 0];

internalField   nonuniform List<vector> 
35840
(
(3.94086009 0.268528715 0.261844483)
(3.20795268 0.371832189 0.357379812)
(2.4382941 0.266508016 0.249860488)
(1.72034385 0.156946615 0.141978109)
(1.29366248 0.0888191831 0.077222566)
(1.05217262 0.0517277938 0.0439383374)
(0.893410113 0.0312088131 0.0270960979)
(0.785192927 0.018998018 0.0180805318)
(0.711661021 0.0115271909 0.0131430848)
(0.659999776 0.00695269619 0.0104203991)
(0.622003202 0.00409888639 0.00881202208)
(0.593005687 0.00226732255 0.00773327589)
(0.570222806 0.00106772263 0.00691285143)
(0.551898036 0.000272455584 0.0062289161)
(0.536897518 -0.000257820098 0.00562677591)
(0.524465278 -0.000609419388 0.00508286197)
(0.514071656 -0.000836315809 0.00458710705)
(0.505323734 -0.000973674595 0.00413409066)
(0.497922961 -0.00104488199 0.00371999564)
(0.49162913 -0.00106503382 0.00334162777)
(0.486242991 -0.00104434546 0.0029959589)
(0.481595662 -0.000990348302 0.00268024295)
(0.477541239 -0.000908983936 0.00239218025)
(0.473952195 -0.00080519969 0.00212991704)
(0.470716287 -0.000683411001 0.00189201966)
(0.467734629 -0.000547822277 0.00167742929)
(0.464920579 -0.000402596879 0.0014853937)
(0.462199214 -0.000251894075 0.00131538348)
(4.52124919 0.409954036 0.331399854)
(4.20224478 0.638139081 0.509000063)
(3.63676016 0.543500117 0.407274401)
(2.94288822 0.391296478 0.261504757)
(2.41564076 0.267511984 0.152217624)
(2.06111238 0.181557276 0.0859689624)
(1.80857567 0.124054026 0.0502534212)
(1.62430266 0.0850935651 0.0317440111)
(1.49022362 0.0584951477 0.0220719711)
(1.39077613 0.0403625779 0.0169147753)
(1.31472144 0.0279209163 0.0139968727)
(1.25503338 0.0192592261 0.0121390971)
(1.20721338 0.01313053 0.0107928329)
(1.16823124 0.0087244449 0.00971823622)
(1.13600896 0.00551035335 0.00880658681)
(1.10909366 0.00314108493 0.00800577119)
(1.08643438 0.00138873858 0.00728913405)
(1.06724448 0.000101197235 0.00664115996)
(1.05090818 -0.000824920615 0.0060509224)
(1.03693184 -0.00146104479 0.00550951896)
(1.02491077 -0.00185817692 0.00500949104)
(1.01450523 -0.00205413691 0.00454491493)
(1.00542237 -0.00207837777 0.00411133885)
(0.997406729 -0.00195535737 0.00370551291)
(0.990233524 -0.00170670425 0.0033252141)
(0.983704121 -0.00135266553 0.00296911791)
(0.977643302 -0.000913003401 0.00263666296)
(0.971897774 -0.000407429602 0.00232788618)
(4.44213343 0.221362711 0.337951836)
(4.08278399 0.436519594 0.518818949)
(3.65713686 0.463122118 0.418089139)
(3.13712216 0.408863868 0.275888794)
(2.7197817 0.331902474 0.166457506)
(2.42181688 0.257617808 0.096104193)
(2.19809408 0.195694952 0.0564741494)
(2.02634271 0.147080179 0.0358926772)
(1.8948345 0.109833895 0.0253534662)
(1.79241152 0.0816997888 0.0198152004)
(1.71052183 0.0606037391 0.016683125)
(1.64373925 0.0447939763 0.0146429695)
(1.58851752 0.0328934172 0.0130967738)
(1.54235132 0.0238658444 0.011805769)
(1.50342076 0.0169548535 0.0106778748)
(1.4703786 0.0116221539 0.00967485694)
(1.44219635 0.00749070295 0.00877779233)
(1.41806464 0.00429779055 0.00797358783)
(1.39732971 0.00185951811 0.00725015991)
(1.37945286 4.49682162e-05 0.006595701)
(1.36397808 -0.00124114995 0.00599916443)
(1.35051455 -0.00207059681 0.0054508091)
(1.33872242 -0.00249994603 0.00494259116)
(1.32830154 -0.00257666276 0.00446825759)
(1.31898474 -0.00234337729 0.00402321291)
(1.31053334 -0.00184073873 0.00360434373)
(1.30273435 -0.0011092196 0.00320981708)
(1.29539907 -0.000190095518 0.00283884379)
(4.41370731 0.123371227 0.337929029)
(3.97527253 0.285999142 0.51684304)
(3.52614451 0.346948516 0.410944588)
(3.04826876 0.341773584 0.26705572)
(2.69650697 0.304745162 0.158687923)
(2.46049745 0.256446266 0.0893116303)
(2.28810471 0.208570191 0.0503487158)
(2.15600931 0.166299719 0.0306480923)
(2.0535597 0.130914044 0.0211760874)
(1.97168668 0.102092008 0.0166821077)
(1.9039018 0.078984642 0.0144643072)
(1.84650836 0.060615259 0.0131653094)
(1.79734377 0.0460562452 0.012175738)
(1.75495217 0.0345069618 0.0112758422)
(1.71826988 0.0253179226 0.0104089645)
(1.6864754 0.0179858517 0.00957293985)
(1.65889691 0.0121332925 0.00877880366)
(1.63496264 0.00748300252 0.00803608355)
(1.61417593 0.00383331699 0.0073486485)
(1.59610028 0.00103738304 0.00671524451)
(1.58034784 -0.00101332021 0.00613133964)
(1.56657127 -0.00240184592 0.00559115476)
(1.55445707 -0.00319486671 0.00508872589)
(1.54372047 -0.00344965259 0.00461861132)
(1.53410182 -0.00321945189 0.00417633175)
(1.52536442 -0.00255723268 0.00375854153)
(1.51729338 -0.00151807493 0.00336302862)
(1.50969547 -0.000160449631 0.00298860852)
(4.40562839 0.0838885657 0.338530011)
(3.92709526 0.205876283 0.518666752)
(3.43458708 0.264644164 0.409525063)
(2.94274585 0.274654109 0.2610331)
(2.60544055 0.257690256 0.150310651)
(2.39689163 0.227998872 0.0805994015)
(2.25547547 0.194255401 0.0421469218)
(2.15330563 0.161540275 0.0232696016)
(2.07740683 0.13213482 0.014740845)
(2.01793137 0.106689713 0.0111878077)
(1.96847408 0.0851338547 0.00984608481)
(1.92578298 0.0671063275 0.00933131006)
(1.888273 0.0521444537 0.00901821748)
(1.85507776 0.0397786438 0.0086826771)
(1.82566478 0.0295822593 0.00827568367)
(1.79965611 0.0211938065 0.00780928296)
(1.77673273 0.0143215586 0.00731042624)
(1.75659467 0.00873817689 0.00680381989)
(1.73895046 0.00427064064 0.00630662829)
(1.72351632 0.000788953836 0.00582846929)
(1.71001733 -0.00180533645 0.00537329974)
(1.69819021 -0.00358893503 0.0049419281)
(1.68778222 -0.00462475047 0.00453319715)
(1.67855274 -0.00496892605 0.00414503409)
(1.67027379 -0.00467643036 0.00377525603)
(1.66273104 -0.00380518121 0.00342202711)
(1.65572529 -0.00241881753 0.00308407833)
(1.64907422 -0.000588168028 0.00276078131)
(4.40178214 0.0613579527 0.339164242)
(3.90242098 0.153224823 0.520512447)
(3.38075246 0.204413551 0.410097303)
(2.8692326 0.221089102 0.258746468)
(2.5275309 0.215765017 0.145978066)
(2.32480318 0.198112329 0.0755281704)
(2.19492677 0.17468245 0.0370207525)
(2.10727217 0.149857938 0.01833886)
(2.04676115 0.126076776 0.0101158892)
(2.00219106 0.104406585 0.00691284962)
(1.96647157 0.085191955 0.00592963725)
(1.93606052 0.0684357891 0.00577170765)
(1.90930943 0.0539812362 0.00580769832)
(1.8854271 0.0416058122 0.00580461292)
(1.8640309 0.0310742072 0.00570591744)
(1.84492077 0.0221668884 0.00551967268)
(1.8279547 0.0146936783 0.00527187088)
(1.81299355 0.00849811231 0.00498837404)
(1.7998841 0.00345624568 0.0046888393)
(1.78845611 -0.000527769565 0.00438589296)
(1.77852827 -0.00352828186 0.00408690053)
(1.76990825 -0.00560429495 0.00379576707)
(1.76239894 -0.00680604166 0.00351391927)
(1.75580144 -0.00718139464 0.00324141689)
(1.74991833 -0.00678124593 0.00297774953)
(1.74455719 -0.00566379764 0.00272230524)
(1.73953427 -0.003897616 0.00247464318)
(1.7346783 -0.00156324884 0.00223463968)
(4.39956892 0.0466852742 0.33965291)
(3.88830915 0.117716326 0.521952181)
(3.34833197 0.161232529 0.411267367)
(2.82105934 0.180137243 0.258563976)
(2.47125323 0.181414621 0.144561452)
(2.2667233 0.171540652 0.073498909)
(2.13929446 0.155458238 0.0347857092)
(2.05698196 0.136736005 0.0160479206)
(2.00350164 0.117616689 0.00782425364)
(1.9667187 0.0993077661 0.00464234759)
(1.93895911 0.0823839315 0.00368811986)
(1.91632629 0.0670728385 0.0035707458)
(1.89695656 0.0534166724 0.00366590331)
(1.87994373 0.0413633002 0.0037414237)
(1.86486333 0.0308189133 0.00373695778)
(1.85152199 0.0216781332 0.00365557966)
(1.83981292 0.0138406561 0.00351865125)
(1.82964627 0.00721962763 0.0033482672)
(1.82092223 0.00174474706 0.00316134647)
(1.81352205 -0.00263875177 0.00296883008)
(1.80730957 -0.0059730539 0.00277734144)
(1.80213019 -0.00829165375 0.00259035398)
(1.79781619 -0.00962526707 0.00240916482)
(1.79419 -0.0100074889 0.00223388693)
(1.79106833 -0.00948007911 0.00206409606)
(1.78826685 -0.00809755753 0.00189920726)
(1.78560538 -0.00593063594 0.00173869968)
(1.78291358 -0.00306804837 0.00158224238)
(4.39821829 0.0366417651 0.340042281)
(3.87962382 0.0929640263 0.523107791)
(3.32764415 0.129536975 0.412493529)
(2.78864882 0.148151334 0.259130906)
(2.4311937 0.152908158 0.144406174)
(2.22296686 0.148084924 0.0729486497)
(2.09472625 0.137289283 0.0341010699)
(2.01372336 0.123297487 0.0153170999)
(1.96298125 0.108017646 0.00705723466)
(1.92979429 0.0926303853 0.00382847458)
(1.90610825 0.0778142561 0.0028129574)
(1.88778071 0.0639334728 0.00262793768)
(1.87278036 0.051164979 0.00266129772)
(1.86008741 0.0395789516 0.00268902267)
(1.8492056 0.0291879715 0.0026537407)
(1.83990148 0.0199768028 0.00255838726)
(1.83205097 0.0119203995 0.00242266176)
(1.82556224 0.00499436085 0.00226635055)
(1.82034191 -0.000819874113 0.00210393262)
(1.81628389 -0.00553404619 0.00194443216)
(1.81326182 -0.00915375275 0.00179289578)
(1.81113059 -0.0116819423 0.00165136307)
(1.80972765 -0.0131241661 0.00152004798)
(1.80887574 -0.0134941471 0.00139823168)
(1.808387 -0.0128195344 0.00128477754)
(1.80806826 -0.0111472067 0.00117844585)
(1.80772744 -0.00854740978 0.00107805622)
(1.80718115 -0.00511603406 0.000982552751)
(4.39732485 0.0293632919 0.340348737)
(3.87390457 0.0747733325 0.524003329)
(3.31376885 0.105375375 0.413533459)
(2.76615986 0.122573186 0.259830347)
(2.40229009 0.128941882 0.144686109)
(2.19016162 0.127294055 0.0729949211)
(2.06001871 0.120204975 0.0340810819)
(1.97866809 0.109783283 0.0152869225)
(1.92869753 0.097584714 0.00701413334)
(1.89702212 0.0846722948 0.00375414805)
(1.87532297 0.0717354356 0.00268652069)
(1.85928418 0.0592030299 0.00243377445)
(1.84675694 0.0473341162 0.00239340442)
(1.83664038 0.0362825811 0.00234975241)
(1.82838319 0.0261394135 0.00225048675)
(1.82171625 0.0169599101 0.00210096983)
(1.81649411 0.00878142056 0.00192170437)
(1.8126134 0.00163457662 0.00173227939)
(1.80997581 -0.0044507333 0.00154653527)
(1.80847224 -0.00944268938 0.00137284692)
(1.80797424 -0.0133077081 0.00121536842)
(1.80833223 -0.0160140538 0.00107530663)
(1.80937522 -0.0175368787 0.000952193664)
(1.81091259 -0.0178644678 0.000844718848)
(1.81273804 -0.017005164 0.000751164433)
(1.81463533 -0.0149940834 0.00066972749)
(1.81638638 -0.0118985037 0.000598628729)
(1.81778092 -0.00782092106 0.000536084431)
(4.39670063 0.0238438935 0.340585859)
(3.8699487 0.0608641159 0.524689107)
(3.30409073 0.0864400626 0.414367311)
(2.75010467 0.101779237 0.260481556)
(2.38102971 0.108612678 0.145085372)
(2.16529429 0.108816214 0.0732487363)
(2.03294481 0.10421507 0.034296219)
(1.95054934 0.0963890586 0.0155029116)
(1.90042133 0.0865734085 0.00723004502)
(1.86921675 0.0756778039 0.0039567232)
(1.84842297 0.0643458595 0.00285946416)
(1.83359027 0.0530185006 0.00256293143)
(1.82247826 0.0419942743 0.00247019885)
(1.81392378 0.0314779446 0.00237123664)
(1.80733414 0.0216145089 0.00221765482)
(1.80241392 0.0125124175 0.00201717387)
(1.79900223 0.00425975988 0.00179158646)
(1.79698727 -0.00306498907 0.00156107504)
(1.7962669 -0.00938652785 0.00133986854)
(1.79672838 -0.0146294264 0.00113646092)
(1.79823901 -0.0187187448 0.00095482895)
(1.80064093 -0.0215836301 0.000796052331)
(1.80374914 -0.0231631195 0.00065959781)
(1.80735233 -0.0234138534 0.00054409482)
(1.81121633 -0.0223189167 0.000447741216)
(1.81509075 -0.0198967886 0.000368500069)
(1.8187186 -0.0162089339 0.000304270799)
(1.82184909 -0.0113645046 0.000253039125)
(4.39624823 0.0195136051 0.340768642)
(3.86710646 0.0498913398 0.525215973)
(3.2971067 0.0712332214 0.415025703)
(2.73832529 0.0845951921 0.261036038)
(2.36506628 0.0912127244 0.145479834)
(2.1461607 0.0923671856 0.0735468856)
(2.01161512 0.089352895 0.0345670173)
(1.92788865 0.0833430071 0.0157742573)
(1.87713237 0.0753013035 0.00750299001)
(1.8458319 0.0659817104 0.00422335146)
(1.82533671 0.0559548981 0.00310933985)
(1.81109445 0.0456408974 0.00278642238)
(1.80079083 0.0353472485 0.00266068412)
(1.79321156 0.025303955 0.00252534787)
(1.78773022 0.0156897638 0.00233439995)
(1.78403089 0.00665117999 0.00209702242)
(1.78194175 -0.00168360663 0.00183583709)
(1.78134688 -0.00919479069 0.00157165532)
(1.78214305 -0.0157643561 0.00131922495)
(1.78421736 -0.0212732186 0.00108716002)
(1.78743413 -0.0256021684 0.000879602183)
(1.79162715 -0.0286359098 0.000697891197)
(1.79659547 -0.0302702865 0.000541702806)
(1.80210234 -0.0304222545 0.0004098045)
(1.80787785 -0.0290417297 0.000300564477)
(1.8136262 -0.0261240052 0.000212175741)
(1.81903781 -0.0217209144 0.000142735931)
(1.82380608 -0.0159484859 9.02584385e-05)
(4.39590978 0.0160235626 0.340909912)
(3.86499577 0.041010885 0.52562355)
(3.29190955 0.0587604923 0.415543946)
(2.72945417 0.0701861787 0.261491473)
(2.35282487 0.0762064768 0.14582877)
(2.13118966 0.0777172783 0.0738298217)
(1.99458456 0.075640478 0.0348291116)
(1.90943515 0.0708429557 0.0160342971)
(1.8578055 0.0640677947 0.00776225044)
(1.82607556 0.055926314 0.0044771703)
(1.80550226 0.0469072462 0.00335139337)
(1.791459 0.0373914926 0.00301083004)
(1.78157493 0.027675452 0.0028633073)
(1.77459545 0.0179956363 0.00270389211)
(1.76986758 0.00854861535 0.00248785252)
(1.76706004 -0.000493785982 0.0022250555)
(1.76599452 -0.00897253458 0.00193859856)
(1.7665551 -0.0167320758 0.00164973502)
(1.76864206 -0.0236141636 0.00137331302)
(1.77214596 -0.0294553607 0.00111802691)
(1.77693128 -0.0340880998 0.00088816141)
(1.78282521 -0.0373456679 0.000685252281)
(1.78961002 -0.0390713197 0.000509232417)
(1.79701935 -0.0391313235 0.000359231872)
(1.80473929 -0.0374311936 0.000234027193)
(1.81241584 -0.0339334347 0.000132238554)
(1.81966975 -0.0286742883 5.23735357e-05)
(1.82611872 -0.0217761537 -7.23401247e-06)
(4.39564926 0.0131509341 0.341019921)
(3.86338125 0.0336782014 0.525942251)
(3.28793077 0.0483566961 0.415954317)
(2.72260139 0.0579602359 0.261861909)
(2.34323089 0.0631851434 0.14612539)
(2.11925678 0.0646683279 0.0740799038)
(1.98076881 0.0630699274 0.0350629481)
(1.89419891 0.0590286036 0.0162642332)
(1.84157173 0.0531116834 0.00798911191)
(1.80920644 0.0458061772 0.00469802973)
(1.78830212 0.0375195676 0.00356233129)
(1.77418257 0.0285848986 0.0032082881)
(1.76443737 0.0192748709 0.00304485376)
(1.75778343 0.00981926593 0.00286817297)
(1.7535497 0.000420056356 0.00263413347)
(1.75139621 -0.00873617753 0.00235298662)
(1.75114449 -0.0174674279 0.0020481597)
(1.75268482 -0.0255875054 0.00174090657)
(1.75592689 -0.0329000595 0.00144592778)
(1.76077079 -0.0391957446 0.00117188297)
(1.76708671 -0.0442533011 0.000923115224)
(1.77469918 -0.0478454337 0.000701294675)
(1.78337486 -0.0497501583 0.000506592156)
(1.79281445 -0.0497678501 0.000338495625)
(1.80265084 -0.0477434369 0.000196243432)
(1.8124559 -0.0435919092 7.90329721e-05)
(1.82175815 -0.0373237712 -1.39663135e-05)
(1.83007221 -0.0290654739 -8.37709737e-05)
(4.3954434 0.0107485839 0.341106663)
(3.86211192 0.0275309214 0.526195094)
(3.28480147 0.0395662101 0.416283112)
(2.71717318 0.0474912881 0.262164076)
(2.3355405 0.0518340184 0.146374358)
(2.1095532 0.0530496586 0.0742951497)
(1.96935803 0.0516119666 0.0352655845)
(1.88141168 0.0479895804 0.0164623841)
(1.82772773 0.0426109388 0.00818306346)
(1.79459442 0.0358572029 0.00488573837)
(1.77317804 0.0280597754 0.00374120712)
(1.7587726 0.0195006844 0.00337606879)
(1.74894336 0.010421346 0.0032000507)
(1.74239037 0.00103522141 0.0030099052)
(1.73843389 -0.0084602509 0.00276193525)
(1.73673408 -0.0178725875 0.00246675364)
(1.73712074 -0.0270040811 0.00214774842)
(1.73949859 -0.0356430406 0.00182585139)
(1.74379589 -0.0435569727 0.00151556151)
(1.74993193 -0.0504886802 0.00122541302)
(1.75779204 -0.0561566938 0.000959699165)
(1.76720602 -0.0602615175 0.000720122864)
(1.77792936 -0.0624991263 0.000506992556)
(1.78962861 -0.0625827781 0.000320085445)
(1.80187405 -0.0602731401 0.000159143699)
(1.81414389 -0.0554149639 2.41127871e-05)
(1.82584439 -0.0479759676 -8.48682788e-05)
(1.83634854 -0.0380806091 -0.000167744031)
(4.39527665 0.00871646034 0.341176233)
(3.86108767 0.0223211003 0.526399253)
(3.2822752 0.0320705189 0.416550675)
(2.71276489 0.038470022 0.262413035)
(2.32923212 0.0419121595 0.146583535)
(2.10149352 0.0427188099 0.0744792514)
(1.9597473 0.041228146 0.0354400004)
(1.87048135 0.0377810885 0.0166325518)
(1.81571396 0.032696136 0.00834884246)
(1.78172114 0.0262649993 0.00504555684)
(1.75965374 0.018749594 0.00389322526)
(1.74479089 0.0103806015 0.00351872205)
(1.73468596 0.00136326702 0.0033322779)
(1.72803256 -0.00811274206 0.00313115488)
(1.72415231 -0.017862761 0.0028721593)
(1.72271522 -0.0276967049 0.0025659001)
(1.72356901 -0.0374088008 0.00223534703)
(1.72664408 -0.0467676252 0.00190110882)
(1.73190005 -0.0555072325 0.00157744036)
(1.73928962 -0.0633209705 0.00127266027)
(1.74872809 -0.069859887 0.000990851074)
(1.76006444 -0.0747380734 0.000733564982)
(1.77305335 -0.0775475701 0.000501091067)
(1.78733033 -0.0778852781 0.000293380761)
(1.80239488 -0.0753931678 0.000110670575)
(1.81760839 -0.0698106742 -4.61643784e-05)
(1.83221492 -0.0610341277 -0.00017557992)
(1.84539114 -0.0491727122 -0.000275776409)
(4.39513837 0.00698487106 0.341233221)
(3.86024038 0.0178752436 0.526567455)
(3.28018353 0.0256432208 0.416772394)
(2.70909585 0.0306702407 0.262621134)
(2.32393577 0.0332359951 0.146760812)
(2.09465162 0.0335601616 0.0746373762)
(1.9514845 0.0318796322 0.0355907277)
(1.86095361 0.0284379305 0.0167796328)
(1.80508959 0.0234656822 0.00849185756)
(1.77016725 0.0171787128 0.00518320597)
(1.74733315 0.00977582243 0.00402408745)
(1.73186179 0.00143686362 0.00364155464)
(1.72130395 -0.0076728199 0.00344638469)
(1.71435622 -0.0173934946 0.00323655746)
(1.71035078 -0.0275611378 0.00296897198)
(1.70897674 -0.0379970523 0.00265380818)
(1.710111 -0.0484963333 0.00231365442)
(1.71372327 -0.0588153254 0.00196883447)
(1.71982118 -0.0686593243 0.00163326025)
(1.72841054 -0.0776722231 0.00131485265)
(1.73945878 -0.0854306287 0.00101729468)
(1.75285662 -0.0914459243 0.000741746373)
(1.76837745 -0.0951786012 0.00048819067)
(1.78563699 -0.0960695751 0.000256491666)
(1.80406004 -0.0935923289 4.72480456e-05)
(1.82286521 -0.0873268192 -0.000137575396)
(1.84108155 -0.0770500228 -0.000294413787)
(1.85761087 -0.0628288583 -0.000418657429)
(4.39502118 0.00550427853 0.341281038)
(3.85952287 0.0140696071 0.526709074)
(3.27840942 0.0201209596 0.416959755)
(2.70596881 0.0239252891 0.262798021)
(2.31938693 0.0256662142 0.146912973)
(2.08871647 0.0254823171 0.0747744816)
(1.94423238 0.0235326608 0.0357221805)
(1.85248211 0.0199849817 0.0169081222)
(1.79551113 0.0149985584 0.00861678579)
(1.75959863 0.00872408379 0.00530340124)
(1.73589297 0.0013023843 0.004138292)
(1.71967029 -0.00713715331 0.00374892129)
(1.70848577 -0.0164721067 0.0035469524)
(1.70104598 -0.0265787165 0.00333058288)
(1.69670068 -0.0373223969 0.00305635006)
(1.69516706 -0.0485464341 0.00273409248)
(1.6963629 -0.0600580357 0.00238615386)
(1.70031285 -0.0716121441 0.00203246686)
(1.70709307 -0.0828938494 0.00168646234)
(1.71678863 -0.0935013004 0.00135550383)
(1.72945051 -0.102932167 0.0010426272)
(1.74504604 -0.110578338 0.000748243526)
(1.76340122 -0.115735559 0.000471553109)
(1.78413729 -0.117636289 0.000211802788)
(1.80661048 -0.115514243 -3.04594027e-05)
(1.82987084 -0.108706417 -0.00025216786)
(1.85266367 -0.0967899303 -0.000446955081)
(1.87350147 -0.0797369148 -0.000605812243)
(4.39491986 0.00423880588 0.341322194)
(3.8589021 0.0108143449 0.526830961)
(3.27687077 0.0153841493 0.417121218)
(2.70324435 0.0181113814 0.262951009)
(2.31539616 0.0190973363 0.147045439)
(2.08346178 0.0184146628 0.0748947426)
(1.93774139 0.0161610064 0.0358380785)
(1.84480615 0.0124438192 0.0170216486)
(1.7867156 0.0073633706 0.0087271718)
(1.74975457 0.00101320638 0.0054094339)
(1.72507552 -0.00652000008 0.00423910344)
(1.70795982 -0.015156889 0.0038445551)
(1.69597079 -0.0248211372 0.00363769174)
(1.68782833 -0.0354320465 0.00341646541)
(1.68290474 -0.0468947927 0.00313723328)
(1.68095277 -0.0590874819 0.00280967268)
(1.68194235 -0.0718444287 0.00245580033)
(1.6859696 -0.0849351351 0.00209510235)
(1.69320309 -0.0980394704 0.00174044135)
(1.70384033 -0.110720639 0.00139847291)
(1.71805896 -0.1223991 0.0010713059)
(1.73595468 -0.132333466 0.000758123902)
(1.7574617 -0.139617906 0.000456612016)
(1.7822563 -0.143209458 0.000164441157)
(1.80965291 -0.142001636 -0.000118855267)
(1.83851495 -0.134960181 -0.00038959316)
(1.86721717 -0.12132708 -0.000637972754)
(1.89371749 -0.100878719 -0.000847992654)
(4.39483078 0.00316193823 0.341358503)
(3.85835498 0.0080429372 0.526938056)
(3.27551012 0.0113437482 0.417262922)
(2.70082429 0.0131354579 0.263085494)
(2.3118289 0.0134491886 0.147162335)
(2.07872514 0.0123033569 0.0750014083)
(1.93183048 0.00974616662 0.0359412686)
(1.8377346 0.00583616268 0.0171227946)
(1.77850774 0.000623420085 0.00882523247)
(1.74043886 -0.00584954074 0.00550357692)
(1.71468466 -0.0135467144 0.00432947767)
(1.69653184 -0.022438707 0.00393139503)
(1.68355121 -0.0324995017 0.00372097977)
(1.6744764 -0.0436995782 0.00349626031)
(1.66870414 -0.0559956861 0.00321360106)
(1.66602721 -0.0693167305 0.00288248053)
(1.66647641 -0.0835440928 0.00252457489)
(1.67023518 -0.098485107 0.00215891201)
(1.67759081 -0.113839219 0.00179778777)
(1.68889309 -0.129157278 0.00144707846)
(1.70450281 -0.143796641 0.0011077145)
(1.72471826 -0.156878766 0.000777110499)
(1.74966968 -0.167261504 0.000450447586)
(1.7791778 -0.173546315 0.000122302113)
(1.81258225 -0.17414892 -0.000210665735)
(1.84856657 -0.167468315 -0.000545829306)
(1.88503368 -0.152183008 -0.000869874154)
(1.91914815 -0.127678578 -0.00115579192)
(4.39475139 0.00225355292 0.341391243)
(3.85786556 0.00570484279 0.52703385)
(3.27428786 0.00793182424 0.417389221)
(2.69864088 0.00892602102 0.263205338)
(2.30859195 0.00865973941 0.147266645)
(2.07439369 0.00710703923 0.0750968077)
(1.92637367 0.0042760362 0.0360335945)
(1.83113383 0.000184076751 0.0172128654)
(1.77075073 -0.00516180353 0.00891247627)
(1.73151497 -0.0117642844 0.00558820786)
(1.70458439 -0.0196351053 0.00441176492)
(1.6852469 -0.0287956964 0.00401112969)
(1.67107699 -0.0392749021 0.00379817914)
(1.66081859 -0.051102803 0.00357117938)
(1.65389024 -0.0643011529 0.00328647736)
(1.6501242 -0.0788689387 0.00295336585)
(1.64961608 -0.0947605029 0.00259322415)
(1.65264892 -0.111853761 0.00222471435)
(1.65965402 -0.129906202 0.00185966863)
(1.67117794 -0.148497092 0.00150324477)
(1.68783524 -0.16695663 0.00115514017)
(1.71022862 -0.184287211 0.000810590313)
(1.73881772 -0.199090395 0.000461179911)
(1.77372109 -0.209527137 9.626902e-05)
(1.81444502 -0.213356333 -0.000293632671)
(1.85956062 -0.20812017 -0.000710924932)
(1.90641126 -0.191550872 -0.00113870353)
(1.95101645 -0.162264767 -0.00153238535)
(4.39468001 0.00149774443 0.341421286)
(3.85742327 0.00376017736 0.527120732)
(3.27317783 0.00509455074 0.417503096)
(2.69664942 0.0054259708 0.263313169)
(2.3056242 0.00467897219 0.147360371)
(2.07039438 0.00279270119 0.0751822782)
(1.92128964 -0.000258676207 0.0361155657)
(1.82491873 -0.00449237384 0.01729283)
(1.76336107 -0.00993689383 0.00899087472)
(1.72290346 -0.0166351561 0.00566528042)
(1.69469821 -0.0246445064 0.00448718125)
(1.67402792 -0.0340377026 0.00408467248)
(1.65846351 -0.044902085 0.0038700003)
(1.64675093 -0.0573355621 0.00364163936)
(1.63832178 -0.071439149 0.00335591902)
(1.6330399 -0.0873039514 0.0030219801)
(1.63106168 -0.104989122 0.00266099607)
(1.63277355 -0.124486649 0.00229142253)
(1.63876931 -0.145668107 0.00192484061)
(1.64983607 -0.16820822 0.0015660044)
(1.66692369 -0.19148124 0.00121377333)
(1.69107157 -0.214430114 0.000861404854)
(1.723262 -0.235419222 0.000496358616)
(1.76416243 -0.252101452 0.000100518668)
(1.81371641 -0.261363244 -0.000347393361)
(1.87059552 -0.259473627 -0.000863389151)
(1.93155658 -0.242582483 -0.0014304729)
(1.99101509 -0.20782449 -0.00197977563)
(4.39461568 0.000880972623 0.341449265)
(3.85702181 0.00217564349 0.527200319)
(3.27216431 0.00278687765 0.417606474)
(2.69482329 0.00258690288 0.26341057)
(2.30289044 0.00146392898 0.147444508)
(2.06668554 -0.000670052551 0.0752577112)
(1.91653379 -0.00386936654 0.0361878558)
(1.81904818 -0.00817761866 0.0173644864)
(1.75630507 -0.013652702 0.00906212311)
(1.71457925 -0.0203736738 0.00573570176)
(1.68500982 -0.0284403464 0.00455637402)
(1.66286522 -0.0379754968 0.00415245605)
(1.64570162 -0.0491268989 0.00393654054)
(1.63225319 -0.0620669142 0.00370729088)
(1.62194834 -0.0769891234 0.00342100929)
(1.61466483 -0.0940995826 0.00308668675)
(1.61060274 -0.113598339 0.00272532309)
(1.61024051 -0.13564527 0.00235525631)
(1.61433767 -0.160302189 0.0019880993)
(1.62395321 -0.187440614 0.00162884874)
(1.64045297 -0.216602745 0.00127659704)
(1.66547202 -0.246804406 0.000924281117)
(1.70078254 -0.276277394 0.000557345186)
(1.74799269 -0.302171092 0.000151327009)
(1.8079762 -0.320287368 -0.000328963653)
(1.88000392 -0.325044222 -0.000926144493)
(1.96042061 -0.309921525 -0.00164193981)
(2.04154299 -0.269185025 -0.00241951084)
(4.39455853 0.000390648305 0.341476087)
(3.8566591 0.000921318847 0.527274042)
(3.27124012 0.000968886387 0.417700546)
(2.69315042 0.000363992098 0.263498023)
(2.3003748 -0.00102762998 0.147518628)
(2.06325056 -0.00331484612 0.0753236716)
(1.91209492 -0.00657259791 0.0362523041)
(1.813521 -0.0108640989 0.0174293842)
(1.74959405 -0.0162718145 0.00912696412)
(1.70656928 -0.0229053815 0.00579994579)
(1.67556417 -0.0309017294 0.0046195949)
(1.65182177 -0.0404298893 0.00421442432)
(1.63286864 -0.0516968497 0.00399733624)
(1.61740775 -0.0649522424 0.00376712227)
(1.60483971 -0.0804915761 0.00347995293)
(1.59502592 -0.0986556364 0.00314451822)
(1.58817556 -0.119821284 0.0027814586)
(1.58482383 -0.144376341 0.00240884145)
(1.58586924 -0.172667242 0.00203835275)
(1.59264204 -0.204902229 0.00167578549)
(1.60697999 -0.240985603 0.00132211601)
(1.63127504 -0.28025185 0.000973685136)
(1.66842236 -0.321066841 0.000620413631)
(1.72154768 -0.360277064 0.000242156413)
(1.79334545 -0.392578262 -0.000193588409)
(1.88477263 -0.409915289 -0.000744604766)
(1.99253062 -0.401417791 -0.00141916551)
(2.10666141 -0.355557984 -0.00232386492)
(4.39450964 1.66388063e-05 0.34150328)
(3.856338 -3.06887276e-05 0.527343641)
(3.27040518 -0.000399489205 0.417785891)
(2.69162853 -0.00128833067 0.263576008)
(2.29807747 -0.00284148202 0.147583732)
(2.06009632 -0.00518051412 0.0753823065)
(1.90799103 -0.00839362992 0.0363103949)
(1.80836942 -0.0125585158 0.0174881416)
(1.74327939 -0.0177759689 0.00918571901)
(1.69894977 -0.0241785388 0.00585811524)
(1.66646726 -0.0319325861 0.00467669722)
(1.64103684 -0.0412461387 0.00427013599)
(1.62013795 -0.0523791938 0.00405154504)
(1.60241832 -0.0656548908 0.0038196719)
(1.5872178 -0.081471906 0.00353028017)
(1.57433755 -0.100316428 0.00319133106)
(1.56393928 -0.122769621 0.00282247572)
(1.5565467 -0.149503299 0.00244068328)
(1.55312314 -0.181250672 0.00205684413)
(1.55520745 -0.218729045 0.0016771453)
(1.56509518 -0.262475725 0.00130583181)
(1.58603729 -0.312536426 0.000947861228)
(1.62238334 -0.367918536 0.000609133458)
(1.67952268 -0.425733394 0.000295922093)
(1.76336966 -0.479986441 -2.19523513e-07)
(1.87881375 -0.519906663 -0.000336118861)
(2.02560122 -0.528726026 -0.000648555855)
(2.1941199 -0.483824685 -0.0016111164)
(4.3944681 -0.000249830365 0.341529731)
(3.85605755 -0.000708499121 0.527407841)
(3.26966156 -0.00136170829 0.417862161)
(2.6902645 -0.00241875843 0.263645211)
(2.29601262 -0.00402777391 0.147641672)
(2.05724781 -0.00631425994 0.0754347622)
(1.90426158 -0.0093724822 0.0363625296)
(1.8036528 -0.0132885149 0.0175408399)
(1.73744726 -0.0181737479 0.0092382899)
(1.69184145 -0.0241744017 0.0059099538)
(1.65788268 -0.0314758012 0.00472726343)
(1.6307254 -0.0403132409 0.00431896017)
(1.60778384 -0.0509868782 0.00409818505)
(1.58762389 -0.063880104 0.00386334061)
(1.56948582 -0.0794828948 0.00356928712)
(1.55305441 -0.0984202348 0.00322241597)
(1.5383647 -0.121483922 0.00283999285)
(1.52582074 -0.149663316 0.00243569878)
(1.51631162 -0.184164328 0.00201653026)
(1.51142363 -0.226392987 0.00158555489)
(1.51376177 -0.277854846 0.00114849851)
(1.52738553 -0.339875432 0.000725212114)
(1.55832138 -0.412967144 0.000366962171)
(1.61502661 -0.495669324 0.000167088396)
(1.70855794 -0.582380903 0.000196262176)
(1.85127066 -0.659762954 0.000403333862)
(2.05295971 -0.703518179 0.00051161407)
(2.31597362 -0.667765484 -0.00265359099)
(4.3944321 -0.000421156359 0.341552779)
(3.85581391 -0.00114373213 0.527463627)
(3.26901337 -0.00196288023 0.417928423)
(2.68907285 -0.00308137376 0.263705451)
(2.29420324 -0.00464567342 0.147692362)
(2.05474101 -0.00677737792 0.0754808597)
(1.90096146 -0.00956901733 0.0364083921)
(1.7994513 -0.0131081053 0.017587107)
(1.73221118 -0.0175080966 0.00928426158)
(1.68540135 -0.0229180671 0.0059550041)
(1.65002329 -0.0295289267 0.00477077843)
(1.62117082 -0.0375867006 0.0043602693)
(1.5961772 -0.0474112642 0.0041363996)
(1.57350161 -0.0594212748 0.00389681704)
(1.55224528 -0.0741683677 0.00359475924)
(1.53191473 -0.0923833861 0.00323372749)
(1.51232214 -0.115037373 0.00282617523)
(1.49360555 -0.143419766 0.00237812008)
(1.47636386 -0.179233334 0.00188506798)
(1.46192923 -0.22469608 0.00133465813)
(1.45283583 -0.282615658 0.000717151702)
(1.45357527 -0.356333313 5.45532867e-05)
(1.47174827 -0.449388308 -0.000538419521)
(1.51967305 -0.564399201 -0.000774043276)
(1.61646162 -0.700154778 -0.000222097747)
(1.7877094 -0.845047684 0.00178073335)
(2.06898783 -0.964889394 0.0041488722)