/*--------------------------------*- C++ -*----------------------------------*\
| =========                 |                                                 |
| \\      /  F ield         | foam-extend: Open Source CFD                    |
|  \\    /   O peration     | Version:     4.1                                |
|   \\  /    A nd           | Web:         http://www.foam-extend.org         |
|    \\/     M anipulation  |                                                 |
\*---------------------------------------------------------------------------*/
FoamFile
{
    version     2.0;
    format      ascii;
    class       volVectorField;
    location    "0.7";
    object      U_0;
}
// * * * * * * * * * * * * * * * * * * * * * * * * * * * * * * * * * * * * * //

dimensions      [0 1 -1 0 0 0 0];

internalField   nonuniform List<vector> 
35840
(
(3.94086009 0.268528714 0.261844479)
(3.20795271 0.37183218 0.35737981)
(2.43829415 0.266507993 0.249860492)
(1.72034395 0.156946573 0.141978122)
(1.29366265 0.0888191205 0.0772225883)
(1.0521729 0.0517277075 0.043938368)
(0.893410529 0.0312087003 0.0270961364)
(0.785193536 0.0189978757 0.0180805783)
(0.711661881 0.0115270161 0.0131431392)
(0.660000955 0.0069524866 0.0104204608)
(0.622004774 0.00409864031 0.00881208988)
(0.593007733 0.00226703933 0.00773334799)
(0.570225413 0.00106740276 0.00691292545)
(0.551901296 0.000272100875 0.00622898911)
(0.536901523 -0.000258206336 0.00562684458)
(0.524470121 -0.000609832085 0.00508292262)
(0.514077425 -0.000836747945 0.00458715585)
(0.505330504 -0.00097411889 0.00413412302)
(0.497930807 -0.00104532994 0.0037200072)
(0.491638108 -0.0010654736 0.00334161446)
(0.486253136 -0.00104476388 0.00299591675)
(0.481606987 -0.000990731682 0.00268016874)
(0.477553731 -0.000909318478 0.0023920717)
(0.473965809 -0.000805471741 0.00212977294)
(0.470730948 -0.000683607714 0.00189184007)
(0.467750229 -0.000547932393 0.00167721569)
(0.464936979 -0.000402611455 0.00148514917)
(0.462216248 -0.000251807105 0.00131511267)
(4.5212492 0.409954025 0.331399857)
(4.20224481 0.638139044 0.509000069)
(3.63676022 0.543500041 0.407274411)
(2.94288834 0.391296345 0.261504776)
(2.41564096 0.267511777 0.152217658)
(2.06111272 0.181556977 0.0859690129)
(1.80857621 0.124053615 0.0502534905)
(1.62430349 0.0850930252 0.0317441017)
(1.49022484 0.0584944624 0.0220720853)
(1.39077785 0.0403617326 0.0169149147)
(1.31472378 0.027919899 0.0139970379)
(1.25503649 0.0192580282 0.0121392877)
(1.20721742 0.0131291472 0.0107930473)
(1.16823638 0.00872287819 0.00971847175)
(1.13601536 0.00550860976 0.00880683957)
(1.10910149 0.00313917841 0.00800603601)
(1.08644382 0.00138669075 0.00728940444)
(1.0672557 9.90366914e-05 0.00664142904)
(1.05092131 -0.000827157227 0.00605118253)
(1.03694701 -0.00146331268 0.00550976077)
(1.02492806 -0.00186042411 0.00500970426)
(1.01452472 -0.00205630432 0.00454508962)
(1.00544405 -0.00208040247 0.00411146577)
(0.997430577 -0.00195717452 0.00370558366)
(0.990259439 -0.00170824967 0.00332522155)
(0.983731954 -0.00135387891 0.0029690567)
(0.977672842 -0.000913831653 0.00263652995)
(0.97192876 -0.000407830039 0.0023276808)
(4.44213343 0.221362688 0.337951842)
(4.082784 0.43651953 0.518818961)
(3.65713687 0.463121993 0.418089153)
(3.13712219 0.408863648 0.275888813)
(2.71978177 0.33190212 0.166457533)
(2.42181705 0.257617276 0.0961042319)
(2.19809442 0.195694197 0.0564742041)
(2.02634331 0.147079157 0.0358927522)
(1.89483546 0.109832563 0.025353566)
(1.79241298 0.0816981083 0.0198153291)
(1.71052393 0.0606016762 0.0166832857)
(1.64374216 0.0447915037 0.0146431643)
(1.58852142 0.0328905159 0.0130970033)
(1.5423564 0.0238625059 0.0118060323)
(1.50342724 0.0169510818 0.0106781693)
(1.47038669 0.0116179675 0.00967517857)
(1.44220626 0.00748613659 0.0087781351)
(1.41807658 0.00429289724 0.0079739443)
(1.39734387 0.00185437009 0.00725052112)
(1.37946943 3.96554253e-05 0.00659605692)
(1.36399718 -0.0012465191 0.00599950342)
(1.3505363 -0.00207589835 0.00545111826)
(1.33874687 -0.00250504232 0.00494285785)
(1.32832868 -0.00258140751 0.00446846961)
(1.3190145 -0.00234762156 0.00402335897)
(1.31056557 -0.0018443377 0.00360441404)
(1.30276885 -0.00111203993 0.00320980397)
(1.29543557 -0.000192022818 0.00283874229)
(4.41370731 0.123371203 0.337929037)
(3.97527251 0.285999077 0.516843057)
(3.52614445 0.346948383 0.410944609)
(3.04826866 0.341773332 0.267055743)
(2.69650684 0.304744731 0.158687947)
(2.46049735 0.256445585 0.0893116574)
(2.28810469 0.208569189 0.0503487478)
(2.15600946 0.166298321 0.0306481328)
(2.05356014 0.130912178 0.0211761411)
(1.97168753 0.102089606 0.0166821796)
(1.9039032 0.0789816418 0.0144644025)
(1.8465105 0.0606116072 0.0131654323)
(1.79734684 0.0460519001 0.0121758919)
(1.75495637 0.0345018972 0.011276029)
(1.71827545 0.0253121312 0.0104091845)
(1.68648258 0.0179793485 0.00957319149)
(1.65890593 0.0121261186 0.0087790835)
(1.63497376 0.00747522773 0.00803638627)
(1.61418937 0.00382504186 0.00734896696)
(1.59611626 0.00102874168 0.00671556958)
(1.58036654 -0.00102216392 0.00613166013)
(1.56659283 -0.00241070084 0.00559145929)
(1.55448159 -0.00320351564 0.00508900203)
(1.54374798 -0.00345785972 0.0046188462)
(1.53413229 -0.00322697245 0.00417651281)
(1.52539772 -0.00256382365 0.00375865723)
(1.51732932 -0.00152350693 0.00336306909)
(1.50973377 -0.000164519342 0.00298856617)
(4.40562839 0.0838885539 0.338530021)
(3.9270952 0.205876247 0.518666778)
(3.43458693 0.264644067 0.409525095)
(2.94274558 0.274653886 0.261033133)
(2.60544018 0.257689826 0.150310682)
(2.39689119 0.227998144 0.080599431)
(2.25547502 0.194254278 0.0421469488)
(2.15330523 0.161538655 0.0232696263)
(2.0774066 0.132132601 0.0147408692)
(2.01793141 0.106686797 0.0111878347)
(1.96847456 0.0851301467 0.00984611883)
(1.92578408 0.067101743 0.00933135574)
(1.88827491 0.0521389223 0.00901827923)
(1.85508071 0.0397721138 0.00868275868)
(1.82566902 0.0295747034 0.00827578775)
(1.79966189 0.021185227 0.00780941085)
(1.77674032 0.0143119928 0.00731057766)
(1.75660435 0.00872770167 0.00680399291)
(1.7389625 0.00425937677 0.00630681929)
(1.72353096 0.000777068338 0.00582867138)
(1.71003481 -0.00181763174 0.00537350558)
(1.69821071 -0.00360138335 0.00494212984)
(1.68780587 -0.00463705567 0.00453338512)
(1.67857961 -0.0049807614 0.0041451975)
(1.67030387 -0.00468745058 0.00377538386)
(1.66276424 -0.00381503734 0.00342210869)
(1.65576141 -0.00242717403 0.00308410395)
(1.64911298 -0.000594720938 0.00276074283)
(4.40178213 0.0613579653 0.339164257)
(3.90242089 0.153224849 0.520512483)
(3.3807522 0.204413537 0.410097346)
(2.86923214 0.221088968 0.258746512)
(2.52753024 0.215764664 0.145978109)
(2.32480235 0.198111647 0.0755282115)
(2.19492581 0.174681316 0.0370207896)
(2.10727113 0.149856227 0.0183388902)
(2.04676014 0.12607436 0.0101159108)
(2.00219019 0.104403335 0.00691286265)
(1.966471 0.0851877443 0.00592964312)
(1.93606042 0.0684305009 0.00577170893)
(1.90931001 0.0539747675 0.00580769825)
(1.88542861 0.0415980807 0.00580461499)
(1.86403359 0.0310651588 0.0057059249)
(1.84492492 0.022156504 0.00551968821)
(1.82796062 0.014681982 0.0052718963)
(1.81300155 0.0084851784 0.00498841007)
(1.79989449 0.00344220518 0.00468888532)
(1.78846919 -0.000542726147 0.00438594625)
(1.77854432 -0.00354390171 0.00408695843)
(1.7699275 -0.00562026143 0.00379582556)
(1.76242157 -0.00682198208 0.00351397274)
(1.75582755 -0.00719689033 0.00324145869)
(1.74994793 -0.0067958467 0.00297777235)
(1.7445902 -0.00567704107 0.00272230157)
(1.7395705 -0.00390905039 0.00247460576)
(1.73471746 -0.00157245836 0.00223456193)
(4.3995689 0.0466853258 0.33965293)
(3.88830902 0.117716452 0.521952228)
(3.34833159 0.161232657 0.411267424)
(2.82105866 0.18013727 0.258564034)
(2.47125224 0.18141443 0.144561509)
(2.266722 0.171540109 0.0734989647)
(2.1392929 0.1554572 0.0347857626)
(2.05698018 0.136734322 0.0160479676)
(2.00349974 0.117614208 0.00782428993)
(1.96671679 0.0993043279 0.0046423703)
(1.93895734 0.0823793799 0.00368812751)
(1.91632483 0.0670670233 0.00357073817)
(1.89695564 0.0534094562 0.0036658813)
(1.8799436 0.0413545666 0.00374138901)
(1.86486428 0.030808576 0.00373691252)
(1.85152433 0.0216661453 0.0036555261)
(1.83981698 0.0138270204 0.00351859155)
(1.82965243 0.00720440677 0.00334820316)
(1.82093085 0.00172807324 0.00316127913)
(1.81353349 -0.00265667136 0.00296875985)
(1.80732416 -0.00599193079 0.00277726936)
(1.80214823 -0.00831111678 0.0025902798)
(1.79783792 -0.00964486793 0.00240908719)
(1.79421556 -0.0100267133 0.00223380378)
(1.79109777 -0.00949836437 0.00206400469)
(1.78830009 -0.00811431659 0.00189910456)
(1.78564223 -0.00594528717 0.00173858234)
(1.7829537 -0.0030800493 0.001582107)
(4.39821826 0.036641873 0.340042307)
(3.87962363 0.0929642973 0.523107851)
(3.32764363 0.12953731 0.412493601)
(2.78864788 0.148151606 0.259130978)
(2.43119232 0.152908225 0.144406244)
(2.22296504 0.148084631 0.072948721)
(2.09472401 0.137288461 0.0341011415)
(2.01372074 0.12329596 0.0153171676)
(1.96297833 0.108015233 0.00705729297)
(1.92979119 0.0926268991 0.00382851881)
(1.90610511 0.0778095071 0.00281298391)
(1.88777771 0.0639272758 0.00262794392)
(1.87277773 0.0511571596 0.00266128231)
(1.86008543 0.0395693552 0.00268898514)
(1.84920458 0.029176474 0.00265368133)
(1.83990177 0.0199633229 0.00255830683)
(1.83205297 0.0119049112 0.0024225615)
(1.82556635 0.00497690719 0.00226623185)
(1.82034857 -0.000839168569 0.00210379664)
(1.81629355 -0.00555496461 0.00194428092)
(1.8132749 -0.00917597507 0.00179273249)
(1.81114746 -0.0117050434 0.0016511902)
(1.80974862 -0.0131476186 0.00151986766)
(1.80890102 -0.0135173325 0.00139804589)
(1.80841669 -0.0128417636 0.00128458799)
(1.80810228 -0.0111677495 0.00117825416)
(1.80776559 -0.00856553282 0.00107786382)
(1.80722303 -0.00513104582 0.000982360006)
(4.39732482 0.0293634756 0.34034877)
(3.87390433 0.0747737994 0.524003405)
(3.31376817 0.105375994 0.413533548)
(2.76615863 0.122573799 0.259830436)
(2.40228827 0.128942322 0.144686194)
(2.1901592 0.127294139 0.0729950081)
(2.06001569 0.120204507 0.0340811722)
(1.97866451 0.10978206 0.015287012)
(1.92869345 0.0975825232 0.00701421609)
(1.89701764 0.0846689157 0.00375421836)
(1.87531825 0.0717306425 0.0026865735)
(1.8592794 0.059196598 0.00243380559)
(1.84675234 0.0473258284 0.00239341071)
(1.83663625 0.0362722382 0.00234973152)
(1.82837987 0.0261268462 0.00225043709)
(1.82171416 0.0169449935 0.00210089042)
(1.81649368 0.00876408986 0.00192159486)
(1.81261512 0.00161484515 0.0017321396)
(1.80998022 -0.00447275842 0.00154636616)
(1.80847987 -0.00946678791 0.00137265119)
(1.8079856 -0.013333533 0.00121514947)
(1.80834782 -0.016041125 0.00107506837)
(1.80939545 -0.0175645823 0.000951940756)
(1.81093776 -0.0178920661 0.000844456649)
(1.8127683 -0.0170318183 0.000750898321)
(1.81467065 -0.0150188912 0.000669463658)
(1.81642652 -0.0119205479 0.000598373883)
(1.81782543 -0.00783932658 0.000535843018)
(4.39670059 0.0238441751 0.340585899)
(3.8699484 0.0608648361 0.5246892)
(3.30408988 0.0864410493 0.41436742)
(2.75010312 0.101780299 0.260481661)
(2.38102741 0.108613618 0.145085473)
(2.16529121 0.10881682 0.0732488394)
(2.03294093 0.104215118 0.034296328)
(1.95054468 0.0963883118 0.015503023)
(1.90041594 0.0865716203 0.00723015276)
(1.86921073 0.0756747159 0.00395682098)
(1.84841645 0.0643412046 0.00285954603)
(1.83358344 0.0530120075 0.00256299202)
(1.82247137 0.0419856754 0.00247023359)
(1.81391714 0.0314669865 0.00237124169)
(1.80732814 0.0216009659 0.00221762687)
(1.802409 0.0124961081 0.00201711017)
(1.79899891 0.00424056703 0.00179148479)
(1.79698612 -0.00308709712 0.00156093354)
(1.79626856 -0.0094114729 0.00133968779)
(1.79673351 -0.014656996 0.00113624268)
(1.79824826 -0.0187485724 0.000954576272)
(1.80065494 -0.0216151799 0.000795769832)
(1.80376846 -0.0231956813 0.000659292063)
(1.80737738 -0.0234465497 0.000543774263)
(1.81124736 -0.0223507278 0.000447415722)
(1.81512776 -0.0199265969 0.000368179495)
(1.81876137 -0.016235587 0.000303964004)
(1.82189708 -0.0113868913 0.000252755283)
(4.39624818 0.0195140091 0.340768691)
(3.86710608 0.0498923767 0.525216085)
(3.29710566 0.0712346713 0.415025833)
(2.73832338 0.0845968246 0.261036163)
(2.36506344 0.0912143093 0.145479951)
(2.14615687 0.0923684809 0.073547005)
(2.01161027 0.089353643 0.034567145)
(1.92788277 0.0833429372 0.0157743905)
(1.87712551 0.075300131 0.00750312262)
(1.84582412 0.0659791347 0.00422347689)
(1.82532815 0.0559506042 0.0031094515)
(1.81108528 0.0456345602 0.00278651397)
(1.8007813 0.03533854 0.00266074993)
(1.79320201 0.0252925554 0.00252538267)
(1.78772106 0.0156753761 0.00233439883)
(1.78402261 0.00663354949 0.00209698076)
(1.78193495 -0.00170466928 0.00183575063)
(1.78134223 -0.00921938173 0.00157152092)
(1.78214131 -0.0157924463 0.00131904155)
(1.78421933 -0.0213046217 0.00108692808)
(1.78744066 -0.02563651 0.000879324282)
(1.79163904 -0.0286726016 0.000697572694)
(1.79661347 -0.0303085123 0.000541351673)
(1.80212705 -0.030460972 0.000409431416)
(1.80790966 -0.0290796963 0.000300182817)
(1.81366521 -0.0261598295 0.000211800362)
(1.81908377 -0.0217531369 0.000142381838)
(1.82385838 -0.0159756833 8.99399592e-05)
(4.39590973 0.0160241155 0.34090997)
(3.86499532 0.041012308 0.525623683)
(3.2919083 0.0587625093 0.415544099)
(2.72945187 0.0701885149 0.261491617)
(2.35282144 0.0762088671 0.145828904)
(2.13118503 0.0777194482 0.0738299574)
(1.99457865 0.0756421356 0.0348292578)
(1.90942795 0.0708437939 0.0160344517)
(1.85779701 0.0640674879 0.00776240744)
(1.82606584 0.0559245149 0.00447732292)
(1.8054914 0.0469035861 0.00335153453)
(1.79144717 0.0373855843 0.00301095266)
(1.78156239 0.0276668963 0.00286340462)
(1.77458253 0.0179840329 0.00270395753)
(1.76985472 0.00853357811 0.00248787938)
(1.76704778 -0.00051260726 0.00222503701)
(1.76598353 -0.00899542659 0.00193852858)
(1.76654616 -0.0167592271 0.00164960877)
(1.76863608 -0.0236456237 0.00137312714)
(1.77214392 -0.0294909965 0.00111778009)
(1.77693424 -0.0341275503 0.000887855261)
(1.78283422 -0.0373883029 0.000684892311)
(1.78962608 -0.0391162109 0.000508828401)
(1.79704331 -0.0391772364 0.000358798101)
(1.80477174 -0.0374766095 0.000233582089)
(1.81245701 -0.0339766117 0.000131803387)
(1.81971943 -0.0287133633 5.19706067e-05)
(1.82617621 -0.0218092845 -7.58360249e-06)
(4.3956492 0.0131516646 0.341019991)
(3.86338072 0.0336800852 0.525942406)
(3.2879293 0.0483593925 0.415954494)
(2.72259868 0.0579634209 0.261862074)
(2.34322683 0.0631885149 0.146125541)
(2.11925128 0.0646715782 0.0740800559)
(1.98076176 0.0630727301 0.0350631125)
(1.89419027 0.0590306135 0.0162644087)
(1.84156146 0.0531125321 0.00798929248)
(1.80919456 0.0458054675 0.00469820857)
(1.78828871 0.0375168717 0.00356250093)
(1.77416776 0.0285797597 0.00320844072)
(1.76442141 0.0192668072 0.00304498153)
(1.75776663 0.00980778078 0.00286826779)
(1.75353253 0.000404653685 0.00263418659)
(1.75137924 -0.00875596994 0.00235298922)
(1.75112847 -0.0174920263 0.00204810349)
(1.75267064 -0.025617228 0.00174078378)
(1.75591563 -0.0329350757 0.00144573204)
(1.76076364 -0.0392360153 0.00117161058)
(1.76708498 -0.0442985139 0.000922766566)
(1.77470426 -0.0478949398 0.000700875581)
(1.78338807 -0.0498029204 0.000506114906)
(1.79283698 -0.0498224152 0.000337979571)
(1.80268357 -0.0477979486 0.000195714514)
(1.81249929 -0.0436441739 7.85220424e-05)
(1.82181207 -0.037371389 -1.4426287e-05)
(1.83013585 -0.0291060305 -8.41486794e-05)
(4.39544332 0.0107495223 0.341106744)
(3.86211132 0.0275333451 0.526195272)
(3.28479977 0.0395697051 0.416283314)
(2.71717004 0.0474954772 0.262164263)
(2.33553579 0.0518385609 0.146374526)
(2.10954679 0.0530542141 0.0742953179)
(1.96934977 0.0516161748 0.0352657665)
(1.88140149 0.0479930585 0.0164625795)
(1.82771555 0.042613275 0.00818326636)
(1.7945802 0.0358579485 0.00488594191)
(1.77316183 0.0280584402 0.00374140343)
(1.75875449 0.0194967345 0.00337624931)
(1.74892355 0.0104142065 0.00320020642)
(1.74236916 0.00102428299 0.00301002619)
(1.73841173 -0.00847561755 0.00276201075)
(1.73671159 -0.0178930074 0.0024667724)
(1.73709872 -0.0270301396 0.00214769854)
(1.73947805 -0.0356752349 0.001825721)
(1.74377806 -0.0435956477 0.00151534026)
(1.74991828 -0.0505339501 0.00122509392)
(1.7577842 -0.0562083516 0.000959280653)
(1.76720574 -0.0603189403 0.000719611241)
(1.77793844 -0.0625611875 0.00050640392)
(1.78964871 -0.0626477872 0.000319446935)
(1.80190648 -0.0603388321 0.000158493173)
(1.81418943 -0.0554785648 2.34964823e-05)
(1.82590309 -0.0480343562 -8.54002264e-05)
(1.83641949 -0.0381305803 -0.000168143876)
(4.39527656 0.00871763807 0.341176326)
(3.86108699 0.0223241459 0.526399456)
(3.28227326 0.0320749366 0.416550902)
(2.71276131 0.0384753779 0.262413242)
(2.32922673 0.0419180744 0.14658372)
(2.10148616 0.0427249122 0.074479435)
(1.95973778 0.0412340438 0.0354401989)
(1.87046954 0.0377863637 0.0166327657)
(1.81569974 0.0327003353 0.00834906592)
(1.78170443 0.026267623 0.00504578287)
(1.7596345 0.0187500877 0.00389344561)
(1.74476916 0.0103783506 0.00351892728)
(1.73466188 0.0013575939 0.00333245755)
(1.72800639 -0.0081225751 0.00313129709)
(1.72412446 -0.0178775404 0.00287225081)
(1.7226863 -0.0277172433 0.00256592581)
(1.72353988 -0.0374359006 0.00223529008)
(1.72661584 -0.0468020237 0.00190095175)
(1.73187412 -0.0555495247 0.00157716712)
(1.73926773 -0.0633715085 0.00127225877)
(1.74871227 -0.0699186563 0.000990316648)
(1.76005694 -0.074804554 0.000732904334)
(1.77305655 -0.0776205959 0.000500326008)
(1.78734654 -0.0779629206 0.000292550797)
(1.80242605 -0.0754726803 0.000109833103)
(1.81765583 -0.0698885396 -4.69374056e-05)
(1.83227894 -0.0611062509 -0.000176209321)
(1.84547082 -0.0492347795 -0.000276186562)
(4.39513828 0.00698631991 0.341233325)
(3.86023962 0.017878994 0.526567682)
(3.28018136 0.0256486877 0.416772647)
(2.70909182 0.0306769306 0.262621362)
(2.32392971 0.0332434915 0.146761013)
(2.0946433 0.0335680651 0.074637574)
(1.9514737 0.0318875236 0.0355909413)
(1.86094014 0.028445361 0.0167798634)
(1.80507327 0.0234721617 0.00849209923)
(1.77014792 0.0171836944 0.00518345164)
(1.74731069 0.00977869013 0.0040243284)
(1.73183617 0.00143692127 0.00364178039)
(1.72127521 -0.00767635807 0.00344658284)
(1.71432454 -0.0174015075 0.00323671374)
(1.71031651 -0.0275745921 0.00296906943)
(1.70894044 -0.0380169855 0.00265382627)
(1.71007353 -0.0485238194 0.00231356948)
(1.71368581 -0.0588514166 0.00196862097)
(1.71978531 -0.0687049625 0.00163289339)
(1.72837829 -0.0777281152 0.00131431219)
(1.73943261 -0.0854970826 0.00101657039)
(1.75283941 -0.0915226504 0.000740844663)
(1.76837236 -0.0952644941 0.000487141533)
(1.78564721 -0.0961625075 0.000255354151)
(1.80408846 -0.0936890106 4.61119295e-05)
(1.82291396 -0.0874227923 -0.000138594151)
(1.84115147 -0.0771398719 -0.000295185153)
(1.85770104 -0.0629066945 -0.000419056485)
(4.39502108 0.00550602977 0.341281155)
(3.85952203 0.0140741443 0.526709325)
(3.27840702 0.0201276008 0.416960031)
(2.70596436 0.0239334801 0.262798269)
(2.31938021 0.0256755037 0.146913188)
(2.08870722 0.0254922833 0.0747746919)
(1.94422031 0.0235428638 0.0357224071)
(1.85246698 0.0199949497 0.016908367)
(1.79549268 0.0150077724 0.00861704284)
(1.75957662 0.00873195779 0.00530366336)
(1.73586718 0.00130824892 0.00413854987)
(1.71964056 -0.00713407093 0.00374916221)
(1.70845203 -0.0164727002 0.0035471615)
(1.70100829 -0.0265840131 0.00333074298)
(1.69665926 -0.0373335624 0.00305643899)
(1.69512238 -0.0485647669 0.00273408212)
(1.69631576 -0.0600849395 0.0023860107)
(1.70026444 -0.0716490735 0.00203215325)
(1.70704511 -0.0829422144 0.00168593969)
(1.71674342 -0.0935623199 0.00135473821)
(1.72941101 -0.103006659 0.0010415978)
(1.74501588 -0.110666445 0.000746953862)
(1.76338453 -0.115836422 0.000470043866)
(1.78413852 -0.117747695 0.000210163236)
(1.80663388 -0.115632339 -3.20857551e-05)
(1.8299198 -0.10882558 -0.000253588549)
(1.85273996 -0.0969029538 -0.000447948663)
(1.87360436 -0.0798356416 -0.000606163563)
(4.39491976 0.00424088915 0.341322323)
(3.8589012 0.0108197464 0.526831234)
(3.27686818 0.0153920843 0.417121516)
(2.7032395 0.0181212347 0.262951274)
(2.31538882 0.0191086264 0.147045666)
(2.08345165 0.0184269523 0.074894963)
(1.93772811 0.0161738444 0.0358383156)
(1.84478942 0.0124567215 0.0170219049)
(1.78669508 0.00737580108 0.00872744166)
(1.7497299 0.00102455551 0.00540970986)
(1.72504637 -0.00651044126 0.00423937355)
(1.70792589 -0.015149958 0.00384480378)
(1.69593183 -0.0248178261 0.00363790206)
(1.68778423 -0.0354335279 0.00341661598)
(1.68285553 -0.0469024412 0.00313729442)
(1.68089875 -0.0591028846 0.00280960587)
(1.68188416 -0.071869376 0.00245555763)
(1.68590836 -0.084971579 0.00209462747)
(1.69314056 -0.0980894344 0.00173967358)
(1.70377905 -0.110786057 0.00139735476)
(1.7180024 -0.122481563 0.00106979594)
(1.7359073 -0.132433858 0.000756215681)
(1.75742891 -0.139735929 0.000454357536)
(1.78224421 -0.143343069 0.000161974583)
(1.80966776 -0.142146502 -0.00012130187)
(1.83856215 -0.135109298 -0.00039169263)
(1.86730007 -0.121470823 -0.000639334986)
(1.89383595 -0.101005621 -0.000848231695)
(4.39483067 0.00316438028 0.341358643)
(3.85835402 0.00804927295 0.52693835)
(3.27550735 0.0113530853 0.417263239)
(2.7008191 0.0131471221 0.263085773)
(2.31182102 0.0134626739 0.147162572)
(2.07871422 0.0123182198 0.0750016362)
(1.93181612 0.00976195604 0.0359415138)
(1.83771641 0.00585239579 0.0171230609)
(1.77848529 0.000639565026 0.0088255146)
(1.74041168 -0.00583409758 0.00550386224)
(1.71465226 -0.0135327022 0.00432975268)
(1.69649375 -0.0224270043 0.0039316428)
(1.68350697 -0.0324911762 0.00372118011)
(1.67442565 -0.0436959304 0.00349638514)
(1.66864666 -0.0559982918 0.00321361085)
(1.665963 -0.0693274775 0.00288232195)
(1.66640585 -0.0835652017 0.00252417891)
(1.67015916 -0.0985191201 0.00215819414)
(1.67751098 -0.113888934 0.00179665167)
(1.6888121 -0.129225594 0.00144542565)
(1.70442457 -0.143886275 0.00110546361)
(1.72464814 -0.156991797 0.000774228124)
(1.74961465 -0.167398715 0.000446990809)
(1.7791462 -0.173706332 0.000118466898)
(1.81258317 -0.174327233 -0.000214504051)
(1.84860859 -0.167656421 -0.000549104442)
(1.88512289 -0.152368075 -0.000871877357)
(1.91928578 -0.127844267 -0.00115580161)
(4.39475128 0.00225637638 0.341391393)
(3.85786456 0.00571217148 0.52703416)
(3.27428495 0.00794265465 0.417389552)
(2.69863541 0.00893962344 0.263205627)
(2.30858364 0.00867559202 0.147266889)
(2.07438214 0.00712470092 0.0750970407)
(1.92635841 0.00429506807 0.0360338476)
(1.8311144 0.000204023847 0.0172131441)
(1.7707266 -0.00514144753 0.00891276729)
(1.73148555 -0.0117441156 0.00558849589)
(1.70454901 -0.0196158415 0.00441203702)
(1.68520488 -0.0287782202 0.00401136739)
(1.67102764 -0.0392603178 0.00379835674)
(1.66076122 -0.0510924995 0.0035712602)
(1.65382427 -0.0642968741 0.00328640869)
(1.65004921 -0.0788728559 0.00295307388)
(1.64953201 -0.0947752817 0.00259260964)
(1.65255623 -0.111882603 0.00222365019)
(1.65955401 -0.129952837 0.00185800156)
(1.67107313 -0.148565665 0.00150080629)
(1.68772978 -0.167051433 0.00115177304)
(1.71012877 -0.18441216 0.000806197199)
(1.73873218 -0.199248169 0.000455798292)
(1.77366109 -0.20971792 9.01677715e-05)
(1.81442371 -0.213576182 -0.000299854314)
(1.85959154 -0.208359277 -0.000716282678)
(1.90650533 -0.191792326 -0.00114188263)
(1.95117787 -0.162485042 -0.00153198069)
(4.3946799 0.00150096779 0.341421443)
(3.85742224 0.00376854257 0.527121053)
(3.27317483 0.00510694223 0.417503435)
(2.69664378 0.00544160801 0.263313463)
(2.30561561 0.00469732967 0.147360618)
(2.07038238 0.00281334217 0.075182517)
(1.92127374 -0.000236146883 0.0361158341)
(1.82489838 -0.00446836089 0.0172931186)
(1.76333564 -0.00991186197 0.00899116755)
(1.72287222 -0.0166096502 0.0056655651)
(1.69466032 -0.0246191891 0.00448744319)
(1.67398247 -0.0340134104 0.00408488999)
(1.65840951 -0.0448798992 0.00387014156)
(1.64668732 -0.0573168932 0.00364165719)
(1.6382475 -0.0714258389 0.00335574348)
(1.63295398 -0.0872983916 0.00302150993)
(1.63096339 -0.104994383 0.00266008969)
(1.63266263 -0.124506608 0.00228988991)
(1.63864638 -0.145707537 0.00192243976)
(1.64970308 -0.168272792 0.00156244994)
(1.66678462 -0.191577342 0.00120876828)
(1.69093327 -0.214564346 0.000854712364)
(1.72313496 -0.235597382 0.00048792862)
(1.7640614 -0.252326812 9.06747963e-05)
(1.8136602 -0.261633981 -0.000357722081)
(1.8706053 -0.259779558 -0.000872493096)
(1.93165172 -0.242901908 -0.00143587633)
(1.99120623 -0.208123311 -0.001978691)
(4.39461556 0.000884616236 0.341449423)
(3.85702079 0.00218507181 0.52720064)
(3.27216128 0.00280086766 0.417606811)
(2.69481759 0.00260462727 0.263410866)
(2.30288173 0.0014848743 0.14744476)
(2.06667336 -0.000646297423 0.0752579674)
(1.91651758 -0.00384313252 0.0361881386)
(1.81902734 -0.00814925396 0.017364777)
(1.75627886 -0.013622598 0.00906241182)
(1.71454681 -0.0203422809 0.00573597641)
(1.68497013 -0.0284082206 0.00455661764)
(1.66281713 -0.0379433639 0.00415264338)
(1.64564382 -0.0490957357 0.00393663292)
(1.63218418 -0.0620380527 0.00370722861)
(1.6218665 -0.0769643861 0.00342070101)
(1.61456847 -0.0940814524 0.00308599578)
(1.61049023 -0.113590168 0.00272405086)
(1.61011052 -0.13565152 0.00235312392)
(1.61418959 -0.160328682 0.00198473163)
(1.62378784 -0.187494737 0.00162377108)
(1.64027338 -0.216693495 0.00126926414)
(1.66528491 -0.246942086 0.000914169857)
(1.70059977 -0.276472632 0.000544149964)
(1.7478329 -0.302432747 0.000135306025)
(1.80786572 -0.320618812 -0.000346476477)
(1.8799757 -0.325437704 -0.000942221103)
(1.96050888 -0.310351034 -0.00165179955)
(2.04177243 -0.269601148 -0.00241744433)
(4.39455839 0.000394732531 0.341476222)
(3.85665806 0.000931812992 0.527274336)
(3.27123711 0.000984458564 0.417700867)
(2.6931448 0.000383825442 0.263498326)
(2.30036621 -0.00100405966 0.147518898)
(2.0632385 -0.00328789446 0.0753239455)
(1.91207883 -0.00654253774 0.0362525876)
(1.81350018 -0.0108311967 0.0174296695)
(1.7495677 -0.016236348 0.00912724164)
(1.70653643 -0.0228676632 0.00580020262)
(1.67552365 -0.0308621524 0.00461981232)
(1.65177218 -0.0403889914 0.00421457328)
(1.63280833 -0.0516553998 0.00399737043)
(1.61733478 -0.0649113595 0.00376696786)
(1.60475181 -0.0804528909 0.00347949368)
(1.59492054 -0.0986215112 0.00314357465)
(1.58804992 -0.119795107 0.00277975986)
(1.58467513 -0.144362904 0.0024059896)
(1.58569507 -0.172673211 0.00203378261)
(1.59244108 -0.204936664 0.00166873107)
(1.60675322 -0.241060434 0.00131161216)
(1.6310276 -0.280382077 0.000958653514)
(1.66816615 -0.321270008 0.000599919809)
(1.72130469 -0.360571254 0.000215978121)
(1.79315115 -0.392977503 -0.000223983612)
(1.88467763 -0.410420875 -0.000774729318)
(1.99259597 -0.402004407 -0.00144014768)
(2.10694419 -0.356156609 -0.00232369768)
(4.39450946 2.11349652e-05 0.341503354)
(3.85633688 -1.91671162e-05 0.527343863)
(3.27040225 -0.000382380755 0.417786177)
(2.69162315 -0.00126641427 0.263576302)
(2.29806923 -0.00281530831 0.147584007)
(2.06008473 -0.00515038467 0.075382577)
(1.90797549 -0.00835973905 0.0363106674)
(1.80834923 -0.0125210171 0.017488412)
(1.74325368 -0.0177349969 0.00918597718)
(1.69891748 -0.0241342275 0.00585834717)
(1.6664271 -0.0318851064 0.00467688236)
(1.64098722 -0.0411957562 0.00427024143)
(1.62007691 -0.052326352 0.00405151686)
(1.60234348 -0.0656003305 0.00381942194)
(1.58712624 -0.0814168394 0.00352966592)
(1.57422577 -0.100262792 0.00319012559)
(1.56380317 -0.122720443 0.00282032354)
(1.5563816 -0.149463216 0.00243703813)
(1.55292413 -0.181226649 0.00205088675)
(1.55496998 -0.218731327 0.00166768812)
(1.56481643 -0.262518985 0.00129123898)
(1.58571846 -0.31264094 0.000926053302)
(1.62203357 -0.368110857 0.000577831639)
(1.67916487 -0.426045498 0.00025338941)
(1.76304838 -0.480451242 -5.36577082e-05)
(1.87860381 -0.520546364 -0.000395443291)
(2.02561076 -0.529528915 -0.000700335944)
(2.19448014 -0.484698159 -0.00163198379)
(4.39446789 -0.00024499183 0.341529751)
(3.85605639 -0.000696021989 0.527407992)
(3.26965882 -0.00134311724 0.417862408)
(2.69025955 -0.0023948802 0.263645473)
(2.29600498 -0.00399912815 0.147641926)
(2.05723703 -0.00628108827 0.0754350144)
(1.9042471 -0.00933488242 0.0363627822)
(1.8036339 -0.0132465151 0.0175410876)
(1.73742305 -0.0181273181 0.00923852198)
(1.69181085 -0.0241234617 0.00591015541)
(1.65784432 -0.0314202458 0.00472741254)
(1.63067757 -0.0402529828 0.00431902087)
(1.60772434 -0.0509219145 0.00409809718)
(1.58754999 -0.0638106177 0.00386300368)
(1.569394 -0.0794094146 0.00356853464)
(1.55294029 -0.0983438851 0.00322097479)
(1.53822277 -0.121406815 0.00283741927)
(1.52564423 -0.149589161 0.00243127986)
(1.51609251 -0.184099377 0.00200913639)
(1.51115295 -0.226347443 0.00157343151)
(1.51343068 -0.27784492 0.0011290016)
(1.52698781 -0.339926118 0.000694546414)
(1.55785853 -0.413115468 0.000320118278)
(1.61451703 -0.49596726 9.82838596e-05)
(1.70805236 -0.582894616 0.000100680722)
(1.8508737 -0.660561263 0.000281428484)
(2.05285623 -0.704633386 0.000377985784)
(2.31643 -0.669059362 -0.00274532278)
(4.3944319 -0.000416011409 0.341552776)
(3.85581284 -0.00113038711 0.527463735)
(3.26901094 -0.00194293252 0.41792863)
(2.68906848 -0.00305572208 0.263705679)
(2.29419647 -0.00461477682 0.14769259)
(2.05473143 -0.00674140438 0.0754810873)
(1.90094857 -0.00952796975 0.0364086184)
(1.7994344 -0.0130618801 0.0175873258)
(1.73218942 -0.0174564853 0.00928446231)
(1.68537367 -0.0228607517 0.00595517164)
(1.64998833 -0.0294654869 0.00477089031)
(1.62112683 -0.0375166327 0.00436028837)
(1.59612192 -0.0473340152 0.00413626245)
(1.57343208 -0.0593363034 0.00389641567)
(1.55215762 -0.0740752519 0.00359391067)
(1.53180385 -0.0922820134 0.00323212319)
(1.51218134 -0.114928273 0.0028232965)
(1.49342605 -0.143304685 0.002373097)
(1.47613431 -0.179116232 0.00187644529)
(1.46163532 -0.224584826 0.00132001143)
(1.45246041 -0.282524891 0.000692473877)
(1.45309989 -0.356289113 1.33275037e-05)
(1.47115804 -0.449435693 -0.00060660855)
(1.51896876 -0.56461318 -0.000885535091)
(1.6156854 -0.700653778 -0.000401275462)
(1.78699056 -0.845999548 0.00150277551)
(2.06862229 -0.966453656 0.00376022557)