/*--------------------------------*- C++ -*----------------------------------*\
| =========                 |                                                 |
| \\      /  F ield         | foam-extend: Open Source CFD                    |
|  \\    /   O peration     | Version:     4.1                                |
|   \\  /    A nd           | Web:         http://www.foam-extend.org         |
|    \\/     M anipulation  |                                                 |
\*---------------------------------------------------------------------------*/
FoamFile
{
    version     2.0;
    format      ascii;
    class       volScalarField::DimensionedInternalField;
    location    "0.7";
    object      V0;
}
// * * * * * * * * * * * * * * * * * * * * * * * * * * * * * * * * * * * * * //

dimensions      [0 3 0 0 0 0 0];

value           nonuniform List<scalar> 
35840
(
1.00000019e-06
1.00000058e-06
1.00000098e-06
1.00000141e-06
1.0000019e-06
1.00000245e-06
1.00000308e-06
1.00000381e-06
1.00000467e-06
1.00000566e-06
1.00000681e-06
1.00000812e-06
1.00000962e-06
1.00001131e-06
1.00001319e-06
1.00001527e-06
1.00001754e-06
1.00001997e-06
1.00002255e-06
1.00002523e-06
1.00002798e-06
1.00003072e-06
1.00003341e-06
1.00003598e-06
1.00003834e-06
1.00004044e-06
1.00004221e-06
1.00004359e-06
1.0000002e-06
1.00000059e-06
1.000001e-06
1.00000144e-06
1.00000194e-06
1.0000025e-06
1.00000315e-06
1.0000039e-06
1.00000478e-06
1.00000581e-06
1.00000699e-06
1.00000835e-06
1.00000991e-06
1.00001166e-06
1.00001363e-06
1.0000158e-06
1.00001817e-06
1.00002073e-06
1.00002343e-06
1.00002626e-06
1.00002916e-06
1.00003206e-06
1.00003491e-06
1.00003763e-06
1.00004015e-06
1.00004238e-06
1.00004427e-06
1.00004573e-06
1.00000021e-06
1.00000062e-06
1.00000106e-06
1.00000153e-06
1.00000205e-06
1.00000265e-06
1.00000335e-06
1.00000417e-06
1.00000512e-06
1.00000623e-06
1.00000753e-06
1.00000902e-06
1.00001074e-06
1.00001268e-06
1.00001487e-06
1.0000173e-06
1.00001996e-06
1.00002284e-06
1.00002591e-06
1.00002913e-06
1.00003244e-06
1.00003577e-06
1.00003905e-06
1.00004219e-06
1.00004511e-06
1.0000477e-06
1.00004989e-06
1.00005161e-06
1.00000023e-06
1.00000069e-06
1.00000116e-06
1.00000168e-06
1.00000226e-06
1.00000294e-06
1.00000372e-06
1.00000464e-06
1.00000572e-06
1.000007e-06
1.00000849e-06
1.00001023e-06
1.00001223e-06
1.00001452e-06
1.0000171e-06
1.00002e-06
1.00002319e-06
1.00002666e-06
1.00003038e-06
1.00003431e-06
1.00003837e-06
1.00004247e-06
1.00004654e-06
1.00005044e-06
1.00005408e-06
1.00005733e-06
1.00006008e-06
1.00006224e-06
1.00000026e-06
1.00000077e-06
1.00000131e-06
1.0000019e-06
1.00000257e-06
1.00000334e-06
1.00000425e-06
1.00000533e-06
1.00000661e-06
1.00000812e-06
1.00000991e-06
1.000012e-06
1.00001442e-06
1.00001722e-06
1.0000204e-06
1.00002399e-06
1.00002797e-06
1.00003234e-06
1.00003704e-06
1.00004204e-06
1.00004723e-06
1.00005252e-06
1.00005778e-06
1.00006285e-06
1.0000676e-06
1.00007185e-06
1.00007547e-06
1.0000783e-06
1.00000029e-06
1.00000089e-06
1.00000151e-06
1.00000219e-06
1.00000297e-06
1.00000388e-06
1.00000495e-06
1.00000624e-06
1.00000778e-06
1.00000961e-06
1.00001179e-06
1.00001437e-06
1.00001738e-06
1.00002087e-06
1.00002487e-06
1.00002942e-06
1.0000345e-06
1.00004011e-06
1.0000462e-06
1.00005271e-06
1.00005951e-06
1.00006648e-06
1.00007345e-06
1.00008021e-06
1.00008655e-06
1.00009226e-06
1.00009712e-06
1.00010094e-06
1.00000034e-06
1.00000103e-06
1.00000175e-06
1.00000255e-06
1.00000347e-06
1.00000455e-06
1.00000583e-06
1.00000738e-06
1.00000925e-06
1.0000115e-06
1.00001419e-06
1.00001739e-06
1.00002117e-06
1.00002558e-06
1.00003067e-06
1.00003649e-06
1.00004305e-06
1.00005034e-06
1.00005831e-06
1.00006688e-06
1.0000759e-06
1.00008519e-06
1.00009453e-06
1.00010364e-06
1.00011222e-06
1.00011997e-06
1.00012659e-06
1.00013181e-06
1.0000004e-06
1.0000012e-06
1.00000204e-06
1.00000298e-06
1.00000407e-06
1.00000535e-06
1.0000069e-06
1.00000878e-06
1.00001106e-06
1.00001382e-06
1.00001716e-06
1.00002115e-06
1.0000259e-06
1.00003148e-06
1.00003798e-06
1.00004547e-06
1.00005396e-06
1.00006348e-06
1.00007395e-06
1.00008528e-06
1.0000973e-06
1.00010976e-06
1.00012234e-06
1.00013468e-06
1.00014636e-06
1.00015695e-06
1.00016602e-06
1.00017318e-06
1.00000046e-06
1.00000139e-06
1.00000238e-06
1.00000348e-06
1.00000477e-06
1.0000063e-06
1.00000816e-06
1.00001043e-06
1.00001321e-06
1.00001661e-06
1.00002074e-06
1.00002572e-06
1.00003168e-06
1.00003875e-06
1.00004704e-06
1.00005666e-06
1.00006766e-06
1.00008007e-06
1.00009384e-06
1.00010885e-06
1.00012486e-06
1.00014158e-06
1.00015857e-06
1.00017532e-06
1.00019125e-06
1.00020575e-06
1.00021821e-06
1.00022809e-06
1.00000053e-06
1.00000162e-06
1.00000277e-06
1.00000406e-06
1.00000557e-06
1.00000739e-06
1.00000961e-06
1.00001235e-06
1.00001573e-06
1.00001989e-06
1.00002498e-06
1.00003117e-06
1.00003863e-06
1.00004755e-06
1.00005809e-06
1.00007041e-06
1.00008463e-06
1.00010078e-06
1.00011884e-06
1.00013867e-06
1.00016e-06
1.0001824e-06
1.00020533e-06
1.00022808e-06
1.00024982e-06
1.0002697e-06
1.00028685e-06
1.00030047e-06
1.00000061e-06
1.00000186e-06
1.0000032e-06
1.0000047e-06
1.00000647e-06
1.00000862e-06
1.00001127e-06
1.00001455e-06
1.00001863e-06
1.00002369e-06
1.00002993e-06
1.00003757e-06
1.00004686e-06
1.00005805e-06
1.00007139e-06
1.0000871e-06
1.00010537e-06
1.00012631e-06
1.00014992e-06
1.00017604e-06
1.00020436e-06
1.00023435e-06
1.00026525e-06
1.0002961e-06
1.00032577e-06
1.00035302e-06
1.00037662e-06
1.00039542e-06
1.0000007e-06
1.00000213e-06
1.00000366e-06
1.00000539e-06
1.00000746e-06
1.00000998e-06
1.00001311e-06
1.00001702e-06
1.00002191e-06
1.00002802e-06
1.00003561e-06
1.00004499e-06
1.00005647e-06
1.00007042e-06
1.00008717e-06
1.00010709e-06
1.00013044e-06
1.00015744e-06
1.00018814e-06
1.00022242e-06
1.0002599e-06
1.0002999e-06
1.00034145e-06
1.00038322e-06
1.00042365e-06
1.000461e-06
1.00049347e-06
1.00051943e-06
1.0000008e-06
1.00000242e-06
1.00000416e-06
1.00000614e-06
1.00000852e-06
1.00001145e-06
1.00001511e-06
1.00001973e-06
1.00002555e-06
1.00003287e-06
1.00004203e-06
1.00005343e-06
1.00006751e-06
1.00008475e-06
1.00010565e-06
1.0001307e-06
1.00016035e-06
1.00019494e-06
1.00023464e-06
1.00027938e-06
1.00032875e-06
1.00038192e-06
1.0004376e-06
1.00049404e-06
1.00054906e-06
1.00060018e-06
1.00064484e-06
1.00068067e-06
1.00000089e-06
1.00000272e-06
1.00000468e-06
1.00000693e-06
1.00000964e-06
1.000013e-06
1.00001724e-06
1.00002264e-06
1.00002948e-06
1.00003817e-06
1.00004913e-06
1.00006287e-06
1.00007996e-06
1.00010108e-06
1.00012691e-06
1.00015817e-06
1.00019551e-06
1.00023949e-06
1.00029048e-06
1.00034851e-06
1.00041318e-06
1.00048352e-06
1.00055788e-06
1.00063392e-06
1.00070863e-06
1.00077853e-06
1.00083993e-06
1.00088938e-06
1.00000099e-06
1.00000302e-06
1.0000052e-06
1.00000773e-06
1.00001078e-06
1.00001461e-06
1.00001948e-06
1.00002569e-06
1.00003366e-06
1.00004384e-06
1.00005678e-06
1.00007317e-06
1.00009375e-06
1.00011935e-06
1.00015095e-06
1.00018958e-06
1.00023617e-06
1.00029161e-06
1.00035656e-06
1.00043127e-06
1.00051545e-06
1.00060798e-06
1.00070684e-06
1.00080893e-06
1.00091015e-06
1.00100559e-06
1.00108996e-06
1.0011582e-06
1.00000109e-06
1.00000331e-06
1.00000572e-06
1.00000852e-06
1.00001193e-06
1.00001623e-06
1.00002173e-06
1.00002882e-06
1.00003797e-06
1.00004974e-06
1.00006485e-06
1.00008413e-06
1.00010853e-06
1.00013924e-06
1.00017755e-06
1.00022476e-06
1.00028228e-06
1.00035146e-06
1.00043341e-06
1.00052878e-06
1.0006375e-06
1.00075844e-06
1.00088915e-06
1.00102566e-06
1.00116243e-06
1.00129257e-06
1.00140845e-06
1.00150266e-06
1.00000118e-06
1.00000359e-06
1.00000621e-06
1.00000927e-06
1.00001303e-06
1.00001779e-06
1.00002393e-06
1.0000319e-06
1.00004226e-06
1.0000557e-06
1.0000731e-06
1.00009545e-06
1.00012403e-06
1.00016039e-06
1.00020622e-06
1.00026325e-06
1.00033339e-06
1.00041869e-06
1.00052096e-06
1.00064146e-06
1.00078061e-06
1.00093743e-06
1.00110915e-06
1.00129082e-06
1.00147506e-06
1.00165229e-06
1.00181151e-06
1.00194175e-06
1.00000126e-06
1.00000383e-06
1.00000664e-06
1.00000994e-06
1.00001402e-06
1.00001922e-06
1.00002598e-06
1.00003481e-06
1.00004636e-06
1.00006148e-06
1.00008118e-06
1.00010676e-06
1.00013981e-06
1.00018217e-06
1.00023597e-06
1.00030369e-06
1.00038821e-06
1.00049219e-06
1.00061818e-06
1.00076861e-06
1.00094482e-06
1.00114628e-06
1.00137016e-06
1.00161056e-06
1.00185795e-06
1.00209913e-06
1.00231823e-06
1.00249883e-06
1.00000132e-06
1.00000403e-06
1.000007e-06
1.00001049e-06
1.00001484e-06
1.00002044e-06
1.00002774e-06
1.00003736e-06
1.00005004e-06
1.00006675e-06
1.00008871e-06
1.00011746e-06
1.00015491e-06
1.00020334e-06
1.00026547e-06
1.00034469e-06
1.00044467e-06
1.00056919e-06
1.00072236e-06
1.00090785e-06
1.00112822e-06
1.00138418e-06
1.0016734e-06
1.00198946e-06
1.00232056e-06
1.00264888e-06
1.00295151e-06
1.00320356e-06
1.00000136e-06
1.00000416e-06
1.00000724e-06
1.00001088e-06
1.00001544e-06
1.00002135e-06
1.0000291e-06
1.00003938e-06
1.00005303e-06
1.00007115e-06
1.00009515e-06
1.00012682e-06
1.00016841e-06
1.00022272e-06
1.00029324e-06
1.00038414e-06
1.00050008e-06
1.00064651e-06
1.00082949e-06
1.00105454e-06
1.00132617e-06
1.00164709e-06
1.00201665e-06
1.00242908e-06
1.00287088e-06
1.00331881e-06
1.00374005e-06
1.00409608e-06
1.00000138e-06
1.00000422e-06
1.00000735e-06
1.00001107e-06
1.00001576e-06
1.00002186e-06
1.00002993e-06
1.00004068e-06
1.00005506e-06
1.00007429e-06
1.00009994e-06
1.00013406e-06
1.00017929e-06
1.00023894e-06
1.00031718e-06
1.0004191e-06
1.0005509e-06
1.00071979e-06
1.00093358e-06
1.00120092e-06
1.00153009e-06
1.00192645e-06
1.00239247e-06
1.00292598e-06
1.00351408e-06
1.00412845e-06
1.00472305e-06
1.00523692e-06
1.00000137e-06
1.00000418e-06
1.0000073e-06
1.00001102e-06
1.00001572e-06
1.00002188e-06
1.00003008e-06
1.00004107e-06
1.00005586e-06
1.00007576e-06
1.0001025e-06
1.00013835e-06
1.00018628e-06
1.00025009e-06
1.00033466e-06
1.00044613e-06
1.00059209e-06
1.00078172e-06
1.00102557e-06
1.00133568e-06
1.00172453e-06
1.00220409e-06
1.00278443e-06
1.00346932e-06
1.00425116e-06
1.00510192e-06
1.00596079e-06
1.0067293e-06
1.00000132e-06
1.00000405e-06
1.00000707e-06
1.00001069e-06
1.0000153e-06
1.00002136e-06
1.00002946e-06
1.00004039e-06
1.00005517e-06
1.00007519e-06
1.00010227e-06
1.00013885e-06
1.00018813e-06
1.00025434e-06
1.00034297e-06
1.00046106e-06
1.00061762e-06
1.00082385e-06
1.00109347e-06
1.00144251e-06
1.00188956e-06
1.00245668e-06
1.00316679e-06
1.00403762e-06
1.00507729e-06
1.00627232e-06
1.00755553e-06
1.0087678e-06
1.00000124e-06
1.0000038e-06
1.00000664e-06
1.00001007e-06
1.00001445e-06
1.00002023e-06
1.00002799e-06
1.00003851e-06
1.00005282e-06
1.00007229e-06
1.0000988e-06
1.00013484e-06
1.00018376e-06
1.00025001e-06
1.00033951e-06
1.00046002e-06
1.00062169e-06
1.00083761e-06
1.00112456e-06
1.00150364e-06
1.00200207e-06
1.00265381e-06
1.00350001e-06
1.00459076e-06
1.0059759e-06
1.0076868e-06
1.00968654e-06
1.0117346e-06
1.00000112e-06
1.00000345e-06
1.00000603e-06
1.00000915e-06
1.00001316e-06
1.00001847e-06
1.00002563e-06
1.00003537e-06
1.00004868e-06
1.00006688e-06
1.00009179e-06
1.00012584e-06
1.00017236e-06
1.00023582e-06
1.00032225e-06
1.00043972e-06
1.00059905e-06
1.00081472e-06
1.00110612e-06
1.00149942e-06
1.00203052e-06
1.00274919e-06
1.00372508e-06
1.00505931e-06
1.00689647e-06
1.009396e-06
1.0126469e-06
1.01634593e-06
1.00000097e-06
1.00000299e-06
1.00000523e-06
1.00000795e-06
1.00001145e-06
1.0000161e-06
1.00002239e-06
1.00003098e-06
1.00004276e-06
1.00005894e-06
1.00008116e-06
1.0001117e-06
1.00015363e-06
1.00021118e-06
1.00029008e-06
1.00039817e-06
1.00054618e-06
1.00074887e-06
1.00102687e-06
1.00140964e-06
1.00194076e-06
1.00268739e-06
1.00375751e-06
1.00532932e-06
1.00770262e-06
1.01135982e-06
1.01678421e-06
1.02364665e-06
1.00000079e-06
1.00000243e-06
1.00000426e-06
1.00000648e-06
1.00000935e-06
1.00001317e-06
1.00001835e-06
1.00002544e-06
1.00003519e-06
1.00004862e-06
1.00006714e-06
1.00009267e-06
1.00012786e-06
1.00017638e-06
1.00024325e-06
1.00033539e-06
1.00046247e-06
1.00063806e-06
1.00088173e-06
1.00122276e-06
1.00170747e-06
1.00241438e-06
1.00348644e-06
1.00519764e-06
1.00807502e-06
1.01309312e-06
1.02200626e-06
1.03359631e-06
1.00000058e-06
1.00000179e-06
1.00000315e-06
1.00000479e-06
1.00000692e-06
1.00000976e-06
1.00001362e-06
1.00001892e-06
1.00002621e-06
1.00003628e-06
1.00005018e-06
1.00006941e-06
1.00009599e-06
1.00013274e-06
1.00018355e-06
1.00025383e-06
1.00035118e-06
1.00048641e-06
1.00067536e-06
1.00094239e-06
1.00132759e-06
1.00190308e-06
1.00281185e-06
1.004361e-06
1.00723073e-06
1.01277411e-06
1.02231347e-06
1.04998964e-06
1.00000056e-06
1.00000168e-06
1.00000285e-06
1.0000041e-06
1.00000551e-06
1.0000071e-06
1.00000894e-06
1.00001107e-06
1.00001355e-06
1.00001643e-06
1.00001976e-06
1.00002357e-06
1.00002792e-06
1.00003282e-06
1.00003829e-06
1.00004432e-06
1.00005089e-06
1.00005796e-06
1.00006544e-06
1.00007322e-06
1.00008119e-06
1.00008916e-06
1.00009697e-06
1.00010441e-06
1.00011128e-06
1.00011737e-06
1.0001225e-06
1.00012649e-06
1.00000057e-06
1.00000171e-06
1.00000291e-06
1.00000419e-06
1.00000562e-06
1.00000725e-06
1.00000914e-06
1.00001133e-06
1.00001388e-06
1.00001685e-06
1.00002029e-06
1.00002425e-06
1.00002876e-06
1.00003385e-06
1.00003955e-06
1.00004586e-06
1.00005274e-06
1.00006015e-06
1.00006801e-06
1.00007621e-06
1.00008462e-06
1.00009305e-06
1.00010132e-06
1.00010922e-06
1.00011652e-06
1.000123e-06
1.00012846e-06
1.00013273e-06
1.0000006e-06
1.00000181e-06
1.00000307e-06
1.00000444e-06
1.00000596e-06
1.0000077e-06
1.00000973e-06
1.00001209e-06
1.00001485e-06
1.00001809e-06
1.00002184e-06
1.00002618e-06
1.00003115e-06
1.0000368e-06
1.00004315e-06
1.00005019e-06
1.00005792e-06
1.00006628e-06
1.00007519e-06
1.00008453e-06
1.00009413e-06
1.00010381e-06
1.00011333e-06
1.00012245e-06
1.00013091e-06
1.00013844e-06
1.0001448e-06
1.00014977e-06
1.00000066e-06
1.00000199e-06
1.00000338e-06
1.00000488e-06
1.00000657e-06
1.00000852e-06
1.00001079e-06
1.00001346e-06
1.00001661e-06
1.00002031e-06
1.00002465e-06
1.00002968e-06
1.00003549e-06
1.00004213e-06
1.00004964e-06
1.00005803e-06
1.00006729e-06
1.00007738e-06
1.00008818e-06
1.00009957e-06
1.00011134e-06
1.00012327e-06
1.00013506e-06
1.0001464e-06
1.00015695e-06
1.00016638e-06
1.00017436e-06
1.00018062e-06
1.00000074e-06
1.00000224e-06
1.00000381e-06
1.00000552e-06
1.00000746e-06
1.0000097e-06
1.00001234e-06
1.00001546e-06
1.00001917e-06
1.00002357e-06
1.00002875e-06
1.00003481e-06
1.00004186e-06
1.00004998e-06
1.00005922e-06
1.00006962e-06
1.00008118e-06
1.00009384e-06
1.0001075e-06
1.00012199e-06
1.00013707e-06
1.00015242e-06
1.00016767e-06
1.00018241e-06
1.00019618e-06
1.00020853e-06
1.00021901e-06
1.00022724e-06
1.00000085e-06
1.00000258e-06
1.00000438e-06
1.00000636e-06
1.00000862e-06
1.00001125e-06
1.00001438e-06
1.00001811e-06
1.00002257e-06
1.0000279e-06
1.00003422e-06
1.00004169e-06
1.00005043e-06
1.00006056e-06
1.00007219e-06
1.00008537e-06
1.00010013e-06
1.0001164e-06
1.00013409e-06
1.00015296e-06
1.00017271e-06
1.00019294e-06
1.00021315e-06
1.00023277e-06
1.00025118e-06
1.00026774e-06
1.00028184e-06
1.00029294e-06
1.00000099e-06
1.00000299e-06
1.00000509e-06
1.00000741e-06
1.00001006e-06
1.00001319e-06
1.00001693e-06
1.00002143e-06
1.00002686e-06
1.00003338e-06
1.00004119e-06
1.00005048e-06
1.00006143e-06
1.00007422e-06
1.00008901e-06
1.0001059e-06
1.00012493e-06
1.00014609e-06
1.00016923e-06
1.00019408e-06
1.00022027e-06
1.00024724e-06
1.00027434e-06
1.00030078e-06
1.00032568e-06
1.00034817e-06
1.00036738e-06
1.00038252e-06
1.00000115e-06
1.00000348e-06
1.00000593e-06
1.00000865e-06
1.0000118e-06
1.00001553e-06
1.00002002e-06
1.00002547e-06
1.00003209e-06
1.00004012e-06
1.00004979e-06
1.00006139e-06
1.00007516e-06
1.00009136e-06
1.00011024e-06
1.00013195e-06
1.00015661e-06
1.00018421e-06
1.00021462e-06
1.0002475e-06
1.00028237e-06
1.00031852e-06
1.00035504e-06
1.00039085e-06
1.00042475e-06
1.00045547e-06
1.00048179e-06
1.00050259e-06
1.00000133e-06
1.00000405e-06
1.00000691e-06
1.00001011e-06
1.00001383e-06
1.00001827e-06
1.00002367e-06
1.00003027e-06
1.00003834e-06
1.0000482e-06
1.00006018e-06
1.00007463e-06
1.00009194e-06
1.00011245e-06
1.00013652e-06
1.00016443e-06
1.00019637e-06
1.00023238e-06
1.00027234e-06
1.00031588e-06
1.00036237e-06
1.00041087e-06
1.00046017e-06
1.00050878e-06
1.00055502e-06
1.0005971e-06
1.00063326e-06
1.00066192e-06
1.00000155e-06
1.00000469e-06
1.00000803e-06
1.00001177e-06
1.00001616e-06
1.00002144e-06
1.0000279e-06
1.00003585e-06
1.00004566e-06
1.00005772e-06
1.00007249e-06
1.00009045e-06
1.00011211e-06
1.00013799e-06
1.00016859e-06
1.00020435e-06
1.00024559e-06
1.00029247e-06
1.00034488e-06
1.00040243e-06
1.00046432e-06
1.00052935e-06
1.00059589e-06
1.00066189e-06
1.00072499e-06
1.00078268e-06
1.00083243e-06
1.00087196e-06
1.00000178e-06
1.0000054e-06
1.00000928e-06
1.00001364e-06
1.00001877e-06
1.00002501e-06
1.0000327e-06
1.00004223e-06
1.00005407e-06
1.00006875e-06
1.00008686e-06
1.00010904e-06
1.000136e-06
1.00016848e-06
1.00020718e-06
1.00025278e-06
1.0003058e-06
1.00036657e-06
1.00043507e-06
1.00051089e-06
1.00059308e-06
1.0006801e-06
1.00076976e-06
1.00085928e-06
1.00094537e-06
1.00102445e-06
1.00109292e-06
1.00114748e-06
1.00000204e-06
1.00000619e-06
1.00001063e-06
1.00001565e-06
1.00002164e-06
1.00002897e-06
1.00003805e-06
1.00004939e-06
1.00006359e-06
1.00008132e-06
1.00010335e-06
1.00013056e-06
1.00016388e-06
1.00020435e-06
1.00025299e-06
1.00031078e-06
1.00037856e-06
1.00045691e-06
1.00054601e-06
1.00064548e-06
1.00075423e-06
1.00087032e-06
1.00099087e-06
1.00111208e-06
1.0012294e-06
1.00133775e-06
1.00143196e-06
1.00150727e-06
1.00000232e-06
1.00000703e-06
1.00001207e-06
1.00001783e-06
1.00002474e-06
1.00003323e-06
1.00004384e-06
1.00005725e-06
1.00007415e-06
1.00009539e-06
1.00012197e-06
1.00015505e-06
1.00019591e-06
1.00024594e-06
1.00030659e-06
1.0003793e-06
1.00046534e-06
1.00056572e-06
1.00068093e-06
1.00081076e-06
1.00095401e-06
1.00110829e-06
1.00126986e-06
1.00143361e-06
1.00159321e-06
1.00174151e-06
1.00187107e-06
1.00197499e-06
1.00000259e-06
1.00000788e-06
1.00001358e-06
1.00002011e-06
1.00002797e-06
1.00003772e-06
1.00005004e-06
1.00006569e-06
1.00008556e-06
1.00011078e-06
1.00014259e-06
1.00018244e-06
1.00023206e-06
1.00029334e-06
1.00036831e-06
1.00045901e-06
1.00056737e-06
1.00069501e-06
1.00084296e-06
1.00101135e-06
1.001199e-06
1.00140307e-06
1.0016188e-06
1.00183937e-06
1.00205607e-06
1.00225877e-06
1.00243682e-06
1.00258018e-06
1.00000288e-06
1.00000875e-06
1.0000151e-06
1.00002242e-06
1.00003129e-06
1.0000424e-06
1.00005652e-06
1.00007457e-06
1.00009768e-06
1.00012722e-06
1.00016478e-06
1.00021235e-06
1.00027207e-06
1.00034635e-06
1.00043808e-06
1.00055016e-06
1.00068536e-06
1.00084624e-06
1.0010347e-06
1.00125149e-06
1.00149569e-06
1.00176412e-06
1.00205084e-06
1.00234689e-06
1.00264035e-06
1.00291699e-06
1.00316148e-06
1.00335917e-06
1.00000316e-06
1.00000961e-06
1.00001661e-06
1.00002472e-06
1.00003462e-06
1.0000471e-06
1.00006306e-06
1.00008363e-06
1.00011019e-06
1.00014435e-06
1.00018819e-06
1.00024414e-06
1.00031497e-06
1.0004041e-06
1.00051525e-06
1.00065226e-06
1.00081918e-06
1.0010199e-06
1.00125767e-06
1.00153435e-06
1.0018497e-06
1.00220042e-06
1.00257939e-06
1.00297504e-06
1.00337128e-06
1.00374816e-06
1.00408361e-06
1.00435621e-06
1.00000342e-06
1.00001041e-06
1.00001802e-06
1.0000269e-06
1.0000378e-06
1.00005164e-06
1.00006946e-06
1.00009259e-06
1.00012264e-06
1.00016165e-06
1.00021213e-06
1.000277e-06
1.00035994e-06
1.00046545e-06
1.00059845e-06
1.00076394e-06
1.00096746e-06
1.00121495e-06
1.00151162e-06
1.00186114e-06
1.00226463e-06
1.00271921e-06
1.00321676e-06
1.00374283e-06
1.00427599e-06
1.00478847e-06
1.00524851e-06
1.00562452e-06
1.00000365e-06
1.00001112e-06
1.00001928e-06
1.00002885e-06
1.00004068e-06
1.00005579e-06
1.00007539e-06
1.00010101e-06
1.00013455e-06
1.00017842e-06
1.00023559e-06
1.00030983e-06
1.00040572e-06
1.00052866e-06
1.00068477e-06
1.00088128e-06
1.00112649e-06
1.00142814e-06
1.00179355e-06
1.00222974e-06
1.00274044e-06
1.003324e-06
1.00397203e-06
1.0046672e-06
1.00538172e-06
1.00607736e-06
1.00670836e-06
1.00722776e-06
1.00000383e-06
1.00001169e-06
1.0000203e-06
1.00003045e-06
1.00004308e-06
1.00005931e-06
1.00008052e-06
1.00010842e-06
1.00014523e-06
1.00019372e-06
1.00025745e-06
1.00034088e-06
1.00044956e-06
1.00059009e-06
1.00077036e-06
1.00100021e-06
1.00129026e-06
1.00165143e-06
1.00209553e-06
1.0026331e-06
1.00327134e-06
1.00401195e-06
1.00484776e-06
1.00575963e-06
1.00671288e-06
1.00765577e-06
1.00852253e-06
1.00924255e-06
1.00000396e-06
1.00001208e-06
1.00002101e-06
1.00003158e-06
1.00004482e-06
1.00006195e-06
1.00008446e-06
1.00011429e-06
1.00015391e-06
1.00020649e-06
1.00027613e-06
1.00036802e-06
1.00048873e-06
1.00064631e-06
1.00085093e-06
1.00111465e-06
1.00145091e-06
1.00187551e-06
1.0024058e-06
1.00305757e-06
1.0038434e-06
1.00477041e-06
1.00583571e-06
1.00702121e-06
1.0082865e-06
1.00956367e-06
1.01075881e-06
1.01176405e-06
1.00000401e-06
1.00001224e-06
1.00002132e-06
1.00003212e-06
1.00004573e-06
1.00006343e-06
1.00008685e-06
1.00011807e-06
1.0001598e-06
1.00021559e-06
1.00029002e-06
1.00038905e-06
1.00052028e-06
1.00069336e-06
1.00092035e-06
1.00121598e-06
1.00159819e-06
1.00208771e-06
1.00270691e-06
1.00348035e-06
1.00443107e-06
1.00557311e-06
1.00691121e-06
1.00843579e-06
1.01010583e-06
1.01183681e-06
1.01349705e-06
1.01491897e-06
1.00000397e-06
1.00001214e-06
1.00002117e-06
1.00003197e-06
1.00004563e-06
1.00006351e-06
1.0000873e-06
1.0001192e-06
1.00016211e-06
1.00021985e-06
1.00029745e-06
1.00040149e-06
1.00054055e-06
1.0007257e-06
1.00097104e-06
1.0012943e-06
1.00171741e-06
1.00226675e-06
1.00297238e-06
1.00386824e-06
1.0049887e-06
1.00636523e-06
1.00802172e-06
1.0099612e-06
1.01215161e-06
1.01450252e-06
1.01683772e-06
1.01889311e-06
1.00000384e-06
1.00001174e-06
1.0000205e-06
1.00003102e-06
1.0000444e-06
1.00006198e-06
1.0000855e-06
1.00011721e-06
1.00016012e-06
1.0002182e-06
1.00029679e-06
1.00040292e-06
1.00054593e-06
1.00073801e-06
1.00099506e-06
1.00133748e-06
1.00179112e-06
1.00238812e-06
1.00316739e-06
1.00417369e-06
1.00545754e-06
1.0070765e-06
1.00908571e-06
1.01151801e-06
1.01437011e-06
1.01757206e-06
1.02091443e-06
1.02398172e-06
1.0000036e-06
1.00001103e-06
1.00001928e-06
1.00002923e-06
1.00004193e-06
1.0000587e-06
1.00008123e-06
1.00011176e-06
1.00015328e-06
1.00020979e-06
1.00028671e-06
1.00039129e-06
1.00053322e-06
1.00072541e-06
1.00098496e-06
1.00133427e-06
1.00180247e-06
1.00242697e-06
1.00325503e-06
1.00434503e-06
1.00576992e-06
1.00761636e-06
1.00998068e-06
1.01296589e-06
1.01664738e-06
1.0210202e-06
1.02589423e-06
1.03065077e-06
1.00000326e-06
1.00001e-06
1.0000175e-06
1.00002657e-06
1.00003819e-06
1.0000536e-06
1.00007438e-06
1.00010265e-06
1.00014127e-06
1.00019409e-06
1.00026636e-06
1.00036517e-06
1.00050014e-06
1.00068421e-06
1.0009348e-06
1.00127517e-06
1.00173635e-06
1.00235944e-06
1.00319873e-06
1.00432578e-06
1.00583515e-06
1.0078505e-06
1.0105304e-06
1.01407924e-06
1.01874511e-06
1.02471044e-06
1.03190006e-06
1.03948917e-06
1.00000283e-06
1.00000866e-06
1.00001518e-06
1.00002307e-06
1.00003322e-06
1.00004672e-06
1.00006498e-06
1.00008992e-06
1.0001241e-06
1.00017104e-06
1.00023553e-06
1.00032413e-06
1.00044579e-06
1.00061268e-06
1.0008414e-06
1.00115449e-06
1.0015826e-06
1.00216748e-06
1.00296642e-06
1.00405892e-06
1.00555747e-06
1.0076245e-06
1.01049812e-06
1.01452435e-06
1.02019672e-06
1.02814641e-06
1.03864388e-06
1.05054575e-06
1.0000023e-06
1.00000705e-06
1.00001236e-06
1.00001881e-06
1.00002713e-06
1.00003821e-06
1.00005325e-06
1.00007383e-06
1.00010213e-06
1.0001411e-06
1.00019482e-06
1.00026889e-06
1.000371e-06
1.0005117e-06
1.00070549e-06
1.0009723e-06
1.00133962e-06
1.00184567e-06
1.00254433e-06
1.00351354e-06
1.00487033e-06
1.00679894e-06
1.00960315e-06
1.01379348e-06
1.02018484e-06
1.02992227e-06
1.04438873e-06
1.06057265e-06
1.0000017e-06
1.00000521e-06
1.00000913e-06
1.00001392e-06
1.00002009e-06
1.00002833e-06
1.00003954e-06
1.0000549e-06
1.00007607e-06
1.00010527e-06
1.00014563e-06
1.00020141e-06
1.00027851e-06
1.00038506e-06
1.0005323e-06
1.00073574e-06
1.00101697e-06
1.00140627e-06
1.00194696e-06
1.00270294e-06
1.00377333e-06
1.00532212e-06
1.00764071e-06
1.0112743e-06
1.01722864e-06
1.02698221e-06
1.04060156e-06
1.07640703e-06
1.00000087e-06
1.00000262e-06
1.00000443e-06
1.00000639e-06
1.00000857e-06
1.00001106e-06
1.00001392e-06
1.00001724e-06
1.00002111e-06
1.00002559e-06
1.00003077e-06
1.00003671e-06
1.00004348e-06
1.00005111e-06
1.00005963e-06
1.00006903e-06
1.00007927e-06
1.00009027e-06
1.00010192e-06
1.00011405e-06
1.00012645e-06
1.00013888e-06
1.00015104e-06
1.00016263e-06
1.00017333e-06
1.00018281e-06
1.0001908e-06
1.00019702e-06
1.00000088e-06
1.00000267e-06
1.00000453e-06
1.00000653e-06
1.00000876e-06
1.0000113e-06
1.00001423e-06
1.00001765e-06
1.00002162e-06
1.00002625e-06
1.00003161e-06
1.00003776e-06
1.00004479e-06
1.00005273e-06
1.0000616e-06
1.00007142e-06
1.00008214e-06
1.00009368e-06
1.00010593e-06
1.00011871e-06
1.00013179e-06
1.00014493e-06
1.00015782e-06
1.00017011e-06
1.00018148e-06
1.00019158e-06
1.00020009e-06
1.00020673e-06
1.00000094e-06
1.00000282e-06
1.00000479e-06
1.00000691e-06
1.00000928e-06
1.000012e-06
1.00001515e-06
1.00001883e-06
1.00002314e-06
1.00002817e-06
1.00003402e-06
1.00004078e-06
1.00004852e-06
1.00005732e-06
1.0000672e-06
1.00007818e-06
1.00009022e-06
1.00010324e-06
1.00011712e-06
1.00013166e-06
1.00014662e-06
1.00016169e-06
1.00017652e-06
1.00019072e-06
1.00020389e-06
1.00021562e-06
1.00022553e-06
1.00023327e-06
1.00000103e-06
1.0000031e-06
1.00000526e-06
1.0000076e-06
1.00001024e-06
1.00001327e-06
1.00001681e-06
1.00002097e-06
1.00002587e-06
1.00003164e-06
1.00003839e-06
1.00004623e-06
1.00005528e-06
1.00006562e-06
1.00007732e-06
1.00009039e-06
1.00010481e-06
1.00012052e-06
1.00013734e-06
1.00015508e-06
1.00017342e-06
1.00019199e-06
1.00021036e-06
1.00022802e-06
1.00024446e-06
1.00025914e-06
1.00027157e-06
1.00028132e-06
1.00000116e-06
1.0000035e-06
1.00000594e-06
1.0000086e-06
1.00001161e-06
1.00001511e-06
1.00001921e-06
1.00002408e-06
1.00002986e-06
1.00003671e-06
1.00004477e-06
1.00005422e-06
1.0000652e-06
1.00007784e-06
1.00009223e-06
1.00010843e-06
1.00012643e-06
1.00014616e-06
1.00016744e-06
1.00019001e-06
1.00021349e-06
1.0002374e-06
1.00026116e-06
1.00028411e-06
1.00030556e-06
1.00032479e-06
1.00034112e-06
1.00035394e-06
1.00000133e-06
1.00000401e-06
1.00000683e-06
1.00000991e-06
1.00001342e-06
1.00001753e-06
1.00002239e-06
1.0000282e-06
1.00003515e-06
1.00004345e-06
1.0000533e-06
1.00006493e-06
1.00007855e-06
1.00009433e-06
1.00011244e-06
1.00013297e-06
1.00015595e-06
1.00018131e-06
1.00020884e-06
1.00023824e-06
1.00026901e-06
1.00030052e-06
1.000332e-06
1.00036255e-06
1.00039123e-06
1.00041702e-06
1.00043898e-06
1.00045626e-06
1.00000154e-06
1.00000465e-06
1.00000793e-06
1.00001154e-06
1.00001567e-06
1.00002055e-06
1.00002637e-06
1.00003338e-06
1.00004183e-06
1.00005199e-06
1.00006416e-06
1.00007862e-06
1.00009568e-06
1.00011561e-06
1.00013864e-06
1.00016494e-06
1.00019459e-06
1.00022754e-06
1.00026358e-06
1.00030229e-06
1.00034307e-06
1.00038509e-06
1.00042729e-06
1.00046847e-06
1.00050726e-06
1.00054229e-06
1.0005722e-06
1.00059579e-06
1.00000179e-06
1.00000542e-06
1.00000924e-06
1.00001348e-06
1.00001838e-06
1.00002418e-06
1.00003118e-06
1.00003967e-06
1.00004999e-06
1.00006248e-06
1.00007756e-06
1.00009561e-06
1.00011706e-06
1.0001423e-06
1.0001717e-06
1.00020552e-06
1.00024393e-06
1.00028692e-06
1.00033427e-06
1.00038549e-06
1.00043981e-06
1.00049611e-06
1.00055299e-06
1.00060876e-06
1.00066156e-06
1.0007094e-06
1.00075039e-06
1.00078279e-06
1.00000208e-06
1.0000063e-06
1.00001077e-06
1.00001575e-06
1.00002154e-06
1.00002846e-06
1.00003687e-06
1.00004714e-06
1.00005972e-06
1.00007507e-06
1.00009373e-06
1.00011624e-06
1.00014319e-06
1.00017515e-06
1.00021264e-06
1.00025611e-06
1.00030585e-06
1.00036194e-06
1.00042418e-06
1.00049199e-06
1.00056439e-06
1.00063994e-06
1.00071672e-06
1.00079243e-06
1.00086444e-06
1.00092998e-06
1.0009863e-06
1.00103092e-06
1.00000241e-06
1.0000073e-06
1.00001251e-06
1.00001834e-06
1.00002517e-06
1.00003339e-06
1.00004345e-06
1.00005584e-06
1.00007111e-06
1.00008991e-06
1.00011291e-06
1.00014088e-06
1.00017462e-06
1.00021493e-06
1.00026259e-06
1.00031829e-06
1.00038252e-06
1.00045553e-06
1.00053716e-06
1.00062678e-06
1.00072318e-06
1.00082446e-06
1.00092809e-06
1.00103087e-06
1.00112915e-06
1.00121899e-06
1.00129647e-06
1.00135803e-06
1.00000277e-06
1.00000841e-06
1.00001445e-06
1.00002124e-06
1.00002924e-06
1.00003895e-06
1.00005092e-06
1.00006577e-06
1.00008422e-06
1.00010709e-06
1.00013529e-06
1.00016984e-06
1.00021183e-06
1.00026241e-06
1.00032269e-06
1.00039371e-06
1.0004763e-06
1.00057093e-06
1.00067762e-06
1.0007957e-06
1.00092371e-06
1.00105923e-06
1.00119886e-06
1.00133827e-06
1.00147234e-06
1.00159548e-06
1.0017021e-06
1.00178706e-06
1.00000318e-06
1.00000964e-06
1.00001655e-06
1.00002438e-06
1.00003371e-06
1.00004513e-06
1.00005927e-06
1.00007693e-06
1.00009904e-06
1.00012666e-06
1.00016098e-06
1.00020335e-06
1.00025526e-06
1.00031829e-06
1.00039404e-06
1.00048405e-06
1.00058961e-06
1.00071163e-06
1.0008504e-06
1.00100532e-06
1.00117469e-06
1.00135547e-06
1.00154318e-06
1.00173193e-06
1.00191459e-06
1.00208328e-06
1.00222996e-06
1.00234719e-06
1.00000361e-06
1.00001094e-06
1.0000188e-06
1.00002777e-06
1.00003853e-06
1.00005175e-06
1.00006829e-06
1.00008917e-06
1.00011549e-06
1.00014857e-06
1.00018997e-06
1.0002415e-06
1.00030514e-06
1.00038306e-06
1.00047752e-06
1.00059076e-06
1.00072477e-06
1.0008811e-06
1.00106053e-06
1.00126271e-06
1.00148578e-06
1.00172601e-06
1.00197757e-06
1.00223251e-06
1.00248096e-06
1.00271178e-06
1.00291343e-06
1.00307514e-06
1.00000404e-06
1.00001227e-06
1.00002114e-06
1.00003132e-06
1.00004356e-06
1.00005875e-06
1.00007794e-06
1.00010232e-06
1.00013326e-06
1.00017254e-06
1.0002221e-06
1.00028416e-06
1.00036144e-06
1.00045689e-06
1.00057365e-06
1.00071491e-06
1.00088367e-06
1.00108245e-06
1.00131285e-06
1.00157506e-06
1.00186723e-06
1.00218495e-06