/*--------------------------------*- C++ -*----------------------------------*\
| =========                 |                                                 |
| \\      /  F ield         | foam-extend: Open Source CFD                    |
|  \\    /   O peration     | Version:     4.1                                |
|   \\  /    A nd           | Web:         http://www.foam-extend.org         |
|    \\/     M anipulation  |                                                 |
\*---------------------------------------------------------------------------*/
FoamFile
{
    version     2.0;
    format      ascii;
    class       surfaceScalarField;
    location    "0.55";
    object      meshPhi;
}
// * * * * * * * * * * * * * * * * * * * * * * * * * * * * * * * * * * * * * //

dimensions      [0 3 -1 0 0 0 0];

internalField   nonuniform List<scalar> 
102656
(
5.78241334e-21
2.70245435e-13
0
2.31296605e-20
8.16291268e-13
-5.78241698e-21
3.46945025e-20
1.38370415e-12
-5.78242073e-21
0
1.9952068e-12
-5.782425e-21
1.40449307e-27
2.67561436e-12
5.78242896e-21
-8.93544906e-28
3.44966676e-12
0
-4.62594202e-20
4.34225651e-12
-5.02174287e-28
0
5.37846802e-12
0
-9.25189612e-20
6.58339703e-12
-5.78245436e-21
4.03948862e-27
7.98172209e-12
1.73473913e-20
9.2519134e-20
9.59700594e-12
-5.78247505e-21
-4.62596045e-20
1.14507132e-11
5.78248599e-21
0
1.35609472e-11
5.7824997e-21
-1.59128775e-26
1.59409299e-11
5.78251517e-21
0
1.85972785e-11
-2.15074237e-27
-2.13361065e-26
2.15281648e-11
-5.78255147e-21
-2.44078296e-26
2.47214849e-11
5.78257508e-21
-9.2520141e-20
2.81531994e-11
-5.78259452e-21
-9.25203345e-20
3.1786038e-11
5.78261813e-21
3.46855285e-26
3.55687777e-11
-4.11346624e-27
3.82862854e-26
3.94363001e-11
5.78266785e-21
-9.2520979e-20
4.33106006e-11
-5.78269303e-21
9.25212216e-20
4.71028621e-11
5.78271768e-21
1.85042675e-19
5.07166095e-11
0
0
5.4051851e-11
5.78276284e-21
1.85043241e-19
5.70099879e-11
0
0
5.94991655e-11
5.78279825e-21
6.14396735e-11
-5.78281797e-21
0
5.78241338e-21
5.46128964e-13
-3.1905442e-29
1.15648305e-20
1.64946707e-12
-1.73472512e-20
2.31296687e-20
2.79584758e-12
0
2.3129677e-20
4.0316155e-12
-2.35507066e-28
7.17151751e-28
5.4074588e-12
-1.15648593e-20
0
6.97393301e-12
0
0
8.78196769e-12
-1.15648814e-20
4.62594506e-20
1.08829807e-11
-1.1564896e-20
3.42907268e-27
1.33285388e-11
-5.78245619e-21
4.14615033e-27
1.61695072e-11
-5.78246573e-21
4.62595771e-20
1.94546407e-11
-1.15649536e-20
4.62596314e-20
2.32285845e-11
0
0
2.75292889e-11
-1.61541402e-27
-9.25195247e-20
3.23848792e-11
-1.90171365e-27
9.25196599e-20
3.7810088e-11
0
-9.25198487e-20
4.38024242e-11
5.7825589e-21
9.25200328e-20
5.0338334e-11
-5.78257805e-21
9.25202297e-20
5.73696904e-11
0
9.25204369e-20
6.48210104e-11
-3.82043614e-27
-9.25206152e-20
7.25878415e-11
1.15653086e-20
9.25208689e-20
8.05367558e-11
-5.78268343e-21
9.25210412e-20
8.85073237e-11
-1.15654211e-20
9.25212941e-20
9.63163178e-11
1.15654685e-20
-1.85042931e-19
1.03764198e-10
1.15655188e-20
-3.70086462e-19
1.1064369e-10
0
1.85043648e-19
1.16750006e-10
5.78279984e-21
0
1.21892006e-10
-1.15656414e-20
1.25903435e-10
-5.78283801e-21
1.85043966e-19
-5.78241351e-21
8.37914368e-13
-5.78241348e-21
-1.36333674e-28
2.53068504e-12
5.78241731e-21
0
4.28986428e-12
1.15648427e-20
-5.78971852e-28
6.18777916e-12
-2.49356514e-28
7.60812941e-28
8.30370887e-12
-3.34946198e-28
2.31297018e-20
1.07168677e-11
-1.15648727e-20
4.62594316e-20
1.35072925e-11
5.78244283e-21
-3.00321397e-27
1.67561069e-11
5.78244974e-21
-4.62594954e-20
2.05450667e-11
-1.15649178e-20
4.45506875e-27
2.49552926e-11
5.78246765e-21
4.62595993e-20
3.00651075e-11
-1.15649623e-20
9.25193051e-20
3.59469214e-11
-5.78249569e-21
0
4.26631533e-11
-5.78251342e-21
9.25196082e-20
5.02612463e-11
-2.06737025e-27
9.25197594e-20
5.87679268e-11
-5.78255019e-21
9.25199462e-20
6.81829753e-11
-5.78257284e-21
-9.25201777e-20
7.84729085e-11
5.78259767e-21
9.25204003e-20
8.95651062e-11
-3.7233429e-27
9.25206357e-20
1.01343036e-10
-4.2237077e-27
4.0121036e-26
1.13643308e-10
5.78267841e-21
4.44752511e-26
1.26255293e-10
-5.28726794e-27
-9.25213288e-20
1.38923961e-10
-5.7827451e-21
1.85043238e-19
1.5135639e-10
5.78276933e-21
-9.25217894e-20
1.63232069e-10
1.15656031e-20
-1.85044107e-19
1.74216736e-10
5.78282481e-21
0
1.83979014e-10
1.15657049e-20
3.70089389e-19
1.92208682e-10
0
1.98635096e-10
-5.78289277e-21
0
0
1.15804472e-12
-3.70225144e-29
-1.15648317e-20
3.49780508e-12
0
0
5.93090192e-12
-5.78242244e-21
-6.37436292e-28
8.55979095e-12
5.78242727e-21
8.39790261e-28
1.14970706e-11
0
0
1.48556188e-11
5.78243847e-21
-4.62594444e-20
1.87500299e-11
1.15648919e-20
-4.62594843e-20
2.32971558e-11
-5.78245484e-21
4.6259528e-20
2.86156088e-11
0
-4.62595744e-20
3.48240839e-11
-5.78247685e-21
6.0630623e-27
4.20383665e-11
5.78248938e-21
-4.62597016e-20
5.03669228e-11
0
0
5.99050287e-11
0
0
7.07274883e-11
-2.3668847e-27
9.25199393e-20
8.28801312e-11
-5.78257106e-21
-2.80632757e-26
9.63704478e-11
5.78259477e-21
-9.25204071e-20
1.11157932e-10
-5.782624e-21
3.71204367e-26
1.27144909e-10
-5.78266017e-21
9.2520995e-20
1.44168832e-10
0
9.2521294e-20
1.61997173e-10
1.15654574e-20
9.25216003e-20
1.80326074e-10
-1.15655324e-20
-9.25219071e-20
1.98783834e-10
1.15656014e-20
-1.85044413e-19
2.16940001e-10
-1.1565691e-20
9.25223536e-20
2.34320385e-10
5.78287373e-21
1.85045498e-19
2.50427666e-10
5.78290705e-21
0
2.64766499e-10
0
1.85046319e-19
2.76871354e-10
1.73488958e-20
2.86334724e-10
0
0
-5.78241393e-21
1.51885851e-12
0
1.15648327e-20
4.58836933e-12
5.78241867e-21
-2.31296755e-20
7.7836101e-12
0
0
1.12431933e-11
-5.78242902e-21
2.31297009e-20
1.51198958e-11
-4.18973326e-28
-2.31297152e-20
1.95675758e-11
5.7824422e-21
0
2.47434149e-11
5.78245052e-21
-4.62595132e-20
3.08089303e-11
5.78246039e-21
4.62595602e-20
3.7929557e-11
-5.78247318e-21
0
4.6272584e-11
1.15649733e-20
-4.6259691e-20
5.60032392e-11
-5.78250394e-21
-8.55747046e-27
6.72787385e-11
1.15650449e-20
9.2519738e-20
8.02401916e-11
0
9.25199568e-20
9.50023774e-11
-5.78257214e-21
-9.25202335e-20
1.11641595e-10
5.78259518e-21
9.25205159e-20
1.30182042e-10
-3.91025108e-27
-9.25207885e-20
1.50581485e-10
5.78266327e-21
1.85042334e-19
1.72717308e-10
-5.27036741e-27
2.77564539e-19
1.96374377e-10
-5.78275699e-21
-9.25218538e-20
2.21236383e-10
-5.78280355e-21
0
2.46882496e-10
5.78284429e-21
7.19287689e-26
2.72791032e-10
5.78288419e-21
-9.25230108e-20
2.98351466e-10
-5.78294092e-21
1.85046748e-19
3.22885449e-10
1.15659851e-20
0
3.45676499e-10
-1.10153591e-26
1.85048187e-19
3.6600685e-10
-5.78308161e-21
-3.70097145e-19
3.83198812e-10
0
3.96657009e-10
5.78314175e-21
0
5.78241432e-21
1.93274347e-12
5.78241432e-21
1.15648341e-20
5.84009719e-12
5.78241972e-21
-1.156484e-20
9.9130673e-12
0
4.62593871e-20
1.43344879e-11
-5.78243203e-21
-4.62594168e-20
1.93065072e-11
5.78243879e-21
-2.31297278e-20
2.50338479e-11
5.7824471e-21
4.62594992e-20
3.17272207e-11
0
0
3.96051014e-11
-1.01726163e-27
-4.62596083e-20
4.88935882e-11
-1.26797083e-27
6.91957077e-27
5.98240232e-11
-5.7825012e-21
4.62597681e-20
7.26280634e-11
-5.78252153e-21
-9.25197606e-20
8.75298958e-11
5.78254318e-21
9.25199776e-20
1.04735363e-10
-5.7825736e-21
9.25202815e-20
1.24417928e-10
-5.78260616e-21
1.85041165e-19
1.46701651e-10
-4.05463353e-27
-1.85041877e-19
1.71641718e-10
-4.79473826e-27
9.25213101e-20
1.99203496e-10
-5.62304963e-27
0
2.292416e-10
0
9.25222033e-20
2.61481003e-10
-5.78284241e-21
9.25226934e-20
2.95502654e-10
-5.78290305e-21
9.25232833e-20
3.30736379e-10
0
9.25237154e-20
3.66463788e-10
5.78302071e-21
-9.25242223e-20
4.01833462e-10
-1.196751e-26
1.0885457e-25
4.35889688e-10
0
-1.85050538e-19
4.67614569e-10
0
1.85051334e-19
4.95981494e-10
-1.50313378e-26
2.58875028e-25
5.20016043e-10
-1.58226708e-26
5.38858807e-10
-1.73500422e-20
1.85052475e-19
-5.78241476e-21
2.41220243e-12
-5.78241476e-21
-2.24717482e-28
7.29111218e-12
-1.67807321e-28
-3.46945287e-20
1.23852471e-11
0
-9.69989063e-28
1.79319642e-11
0
2.31297215e-20
2.41945714e-11
-5.65295976e-28
6.93892227e-20
3.14414558e-11
5.78245322e-21
-4.62595322e-20
3.99511666e-11
-9.51084801e-28
-4.62595997e-20
5.00153925e-11
-1.20393176e-27
4.62596759e-20
6.19394104e-11
5.78249635e-21
-1.38779286e-19
7.60395401e-11
5.78251695e-21
0
9.26371589e-11
5.78254161e-21
-4.62600061e-20
1.1204877e-10
-1.15651447e-20
0
1.34571685e-10
-1.15652179e-20
0
1.60465069e-10
0
9.25210329e-20
1.89926423e-10
-5.78269756e-21
0
2.23064075e-10
-5.78274588e-21
0
2.59866885e-10
0
-9.25225552e-20
3.00173134e-10
-5.78288098e-21
8.14193904e-26
3.43641407e-10
-5.78295533e-21
-9.2523718e-20
3.89727076e-10
-1.15660704e-20
9.25244862e-20
4.37668559e-10
-5.78311935e-21
0
4.86487685e-10
0
9.25259844e-20
5.35007932e-10
-5.78329312e-21
1.408935e-25
5.8189301e-10
-1.15667562e-20
-1.8505453e-19
6.25706028e-10
5.78345813e-21
1.85055613e-19
6.64986653e-10
0
0
6.9834058e-10
0
7.24532884e-10
-5.78364079e-21
-3.70113992e-19
-5.78241528e-21
2.96980491e-12
-5.78241528e-21
1.15648379e-20
8.97984009e-12
5.78242256e-21
-1.15648463e-20
1.5266947e-11
-5.78243031e-21
2.31297112e-20
2.21357352e-11
0
1.51619295e-27
2.99253646e-11
0
-1.9729495e-27
3.89840321e-11
8.72285614e-28
-9.25191581e-20
4.96763559e-11
5.78247478e-21
0
6.23882087e-11
0
8.0271385e-27
7.75282614e-11
5.78251288e-21
1.00010265e-26
9.55255331e-11
5.78253821e-21
-9.25199639e-20
1.16822408e-10
0
-4.62601474e-20
1.41862297e-10
-5.78260536e-21
-9.25206719e-20
1.71071145e-10
5.78264883e-21
0
2.04832208e-10
0
-1.85043304e-19
2.43453958e-10
5.78275958e-21
-1.85044485e-19
2.87131635e-10
5.78282814e-21
-7.62190481e-26
3.35903824e-10
-8.79353756e-27
-9.25236049e-20
3.89606616e-10
5.78299316e-21
1.03519917e-25
4.47829151e-10
0
-1.85050533e-19
5.09875721e-10
1.38949783e-26
0
5.74740695e-10
-5.7833031e-21
1.5126123e-25
6.4110305e-10
5.78343512e-21
-9.25280135e-20
7.07346764e-10
-5.78355248e-21
1.85057987e-19
7.71611616e-10
-2.19406212e-26
1.85059848e-19
8.31875653e-10
0
-1.8506133e-19
8.86066212e-10
0
1.85062554e-19
9.32191303e-10
-2.70444226e-26
9.68478566e-10
5.78399844e-21
-1.85063469e-19
0
3.61798098e-12
0
1.15648403e-20
1.09444944e-11
-2.27208809e-28
1.15648502e-20
1.86251014e-11
-3.88364612e-28
-1.32739703e-27
2.70468825e-11
5.7824435e-21
2.31297481e-20
3.66427638e-11
-5.78245602e-21
2.31297817e-20
4.78607943e-11
-5.78246927e-21
-4.6259629e-20
6.1174412e-11
-5.7824863e-21
-4.62597283e-20
7.70902361e-11
1.15650176e-20
9.2519685e-20
9.61515154e-11
5.78253261e-21
-9.25199393e-20
1.18936116e-10
5.78256373e-21
0
1.46048821e-10
1.15652065e-20
0
1.78106496e-10
5.78264718e-21
-4.55295418e-26
2.15714685e-10
0
0
2.59434578e-10
0
-9.2522428e-20
3.09739759e-10
-7.66583567e-27
0
3.66963024e-10
-5.78293993e-21
-9.25239742e-20
4.31234758e-10
0
-2.77574919e-19
5.02415988e-10
-5.7831583e-21
9.25261246e-20
5.80031163e-10
-5.78328671e-21
-1.8505427e-19
6.63207924e-10
-1.77325982e-26
-9.25286883e-20
7.50633173e-10
-5.78355567e-21
-9.25295853e-20
8.40535967e-10
0
3.70123764e-19
9.30707539e-10
-2.58312787e-26
9.25322804e-20
1.01856655e-09
-1.15680931e-20
0
1.10127307e-09
-5.78419515e-21
1.85068888e-19
1.17588785e-09
0
-1.8506999e-19
1.23956541e-09
-5.78444659e-21
1.28976137e-09
5.78450152e-21
-1.85071835e-19
-8.68013336e-29
4.36854448e-12
5.78241646e-21
-1.15648434e-20
1.32219888e-11
-2.63388177e-28
0
2.25254402e-11
-5.78243739e-21
2.31297349e-20
3.27656317e-11
5.78244875e-21
2.31297655e-20
4.44907675e-11
0
4.62596027e-20
5.82735467e-11
5.78248046e-21
9.25193938e-20
7.47239594e-11
0
-4.62598098e-20
9.45024418e-11
-2.01369079e-27
0
1.18326572e-10
0
0
1.46969541e-10
5.7825938e-21
-1.38780932e-19
1.8125252e-10
-5.78264042e-21
-4.62605591e-20
2.22027666e-10
0
9.25217709e-20
2.7014917e-10
-5.7827718e-21
-1.85044919e-19
3.26430774e-10
0
9.25232612e-20
3.91588268e-10
-9.46563535e-27
9.25243326e-20
4.66166781e-10
5.78305675e-21
-1.20188933e-25
5.50454244e-10
5.78318697e-21
-9.25266002e-20
6.44384628e-10
-5.78335139e-21
-9.25279927e-20
7.47437318e-10
-5.78351983e-21
-9.25295074e-20
8.58542659e-10
-5.78370476e-21
9.25311195e-20
9.76007293e-10
-5.78390366e-21
-1.85065586e-19
1.09747549e-09
5.78408293e-21
9.25347635e-20
1.21994316e-09
5.78429302e-21
2.77609005e-19
1.33983892e-09
5.78450142e-21
-6.78572972e-25
1.45317975e-09
0
3.70156894e-19
1.55579889e-09
0
0
1.64362971e-09
0
1.71301607e-09
0
1.85082876e-19
-9.97402164e-29
5.2309893e-12
-1.15648346e-20
1.15648461e-20
1.58452604e-11
-3.03376742e-28
0
2.70306281e-11
5.78244086e-21
2.3129749e-20
3.938863e-11
0
2.42391579e-27
5.36092509e-11
1.15649427e-20
3.19564314e-27
7.04215036e-11
1.7347473e-20
8.30084784e-27
9.06041571e-11
5.78251479e-21
4.62598926e-20
1.15011805e-10
0
-9.25201302e-20
1.44587053e-10
-5.78258531e-21
1.38780825e-19
1.80357198e-10
-3.8612236e-27
-9.25210529e-20
2.23429145e-10
5.78268578e-21
-2.72297239e-26
2.74971464e-10
-5.78276194e-21
0
3.36179354e-10
5.78284095e-21
8.36218591e-26
4.08221257e-10
0
9.25243486e-20
4.92163514e-10
-5.78306569e-21
1.85051307e-19
5.88872242e-10
-1.41906696e-26
-1.50096362e-25
6.98893254e-10
5.78339425e-21
-9.25286611e-20
8.22313891e-10
5.78356894e-21
9.2530488e-20
9.58614048e-10
-5.78383408e-21
4.94467249e-25
1.10651995e-09
-5.78405331e-21
-1.85069566e-19
1.2638803e-09
-5.78428415e-21
-2.77610988e-19
1.42758946e-09
-1.15691942e-20
0
1.5935844e-09
-4.32109478e-26
0
1.75693999e-09
-5.78522115e-21
0
1.91207871e-09
-5.30708527e-26
1.85091765e-19
2.05309487e-09
-5.75114002e-26
1.85093958e-19
2.1741723e-09
-6.13563129e-26
2.27005056e-09
-5.78609914e-21
-1.85097376e-19
-1.14515265e-28
6.22119263e-12
0
1.15648494e-20
1.88525108e-11
1.15648626e-20
-1.15648648e-20
3.21918541e-11
5.78244513e-21
0
4.69917732e-11
0
2.8004038e-27
6.41219261e-11
0
-4.62597096e-20
8.44939207e-11
0
0
1.09085343e-10
-2.13731643e-27
4.62599959e-20
1.3899794e-10
5.78256749e-21
0
1.7546624e-10
-1.15652282e-20
2.04753052e-26
2.19843748e-10
0
4.62608037e-20
2.73610426e-10
-5.78274947e-21
4.62611636e-20
3.38356499e-10
5.78282375e-21
0
4.1573993e-10
-1.15658764e-20
-9.25242045e-20
5.07421923e-10
5.78305676e-21
1.85051414e-19
6.14969532e-10
5.78321033e-21
-1.53621177e-25
7.39725192e-10
-1.74458769e-26
0
8.82642251e-10
0
2.23986832e-25
1.04409074e-09
-5.78387984e-21
1.85067406e-19
1.22363948e-09
-3.06497222e-26
3.133361e-25
1.41983258e-09
-5.78448584e-21
-9.25394282e-20
1.62998823e-09
-5.78483534e-21
-4.17621631e-25
1.85005663e-09
0
-1.85090309e-19
2.07457922e-09
5.78559581e-21
-2.77644594e-19
2.29679089e-09
0
0
2.50889609e-09
-1.15727248e-20
0
2.7025272e-09
-5.78671064e-21
0
2.86935876e-09
-5.78701346e-21
3.00181046e-09
-5.78725551e-21
0
0
7.34598761e-12
1.15648379e-20
-1.15648534e-20
2.22651627e-11
1.15648679e-20
8.26611901e-28
3.80535306e-11
0
2.31297786e-20
5.5652486e-11
-1.00159611e-27
2.31298297e-20
7.61369888e-11
5.78249106e-21
-2.312989e-20
1.00632212e-10
5.78251647e-21
-4.6259921e-20
1.30378715e-10
-2.46254087e-27
-4.62601246e-20
1.66798867e-10
0
4.62603667e-20
2.11472681e-10
-4.16408113e-27
2.40775974e-26
2.66157118e-10
-5.78271271e-21
-4.62610501e-20
3.32826505e-10
-6.84823486e-27
-4.62614821e-20
4.13628791e-10
5.7829011e-21
0
5.10841953e-10
0
0
6.2680427e-10
-5.78320188e-21
-9.25273197e-20
7.63788545e-10
5.78339679e-21
0
9.23831921e-10
-2.12916177e-26
9.2531514e-20
1.10851327e-09
0
-9.25339574e-20
1.31868644e-09
-5.78422953e-21
-9.25370013e-20
1.55416561e-09
5.78452333e-21
3.94874386e-25
1.8133879e-09
4.5513977e-26
-9.25450337e-20
2.09309267e-09
-5.7854238e-21
9.2549656e-20
2.38807089e-09
-1.15718841e-20
9.25527349e-20
2.69105024e-09
-5.78649245e-21
6.80631808e-25
2.99278454e-09
-8.0490434e-26
5.55367802e-19
3.28240551e-09
-8.94549963e-26
1.85130341e-19
3.54806393e-09
5.78791071e-21
0
3.77783171e-09
-5.78842501e-21
3.9607662e-09
5.78853731e-21
-1.81464206e-24
5.78241991e-21
8.60480275e-12
0
1.15648566e-20
2.60924865e-11
0
-9.31061638e-28
4.4647443e-11
-7.62574321e-28
-2.31297983e-20
6.54205752e-11
5.78247507e-21
2.31298575e-20
8.97218949e-11
-5.78250302e-21
-2.31299236e-20
1.18950979e-10
1.15650613e-20
4.62600245e-20
1.54680621e-10
-2.81047249e-27
0
1.98697922e-10
0
4.62605569e-20
2.53015687e-10
5.78268169e-21
2.80460232e-26
3.19940365e-10
-6.21993736e-27
-3.59999844e-26
4.02051523e-10
0
-4.62618763e-20
5.02193868e-10
0
-9.25252575e-20
6.23487558e-10
0
0
7.6919255e-10
5.78333776e-21
0
9.42562475e-10
0
0
1.14663164e-09
-5.78388662e-21
1.85069086e-19
1.38391303e-09
0
3.43030793e-25
1.65604854e-09
-5.78464502e-21
-9.25418771e-20
1.96335867e-09
5.78507317e-21
4.94314982e-25
2.30433977e-09
-5.67777158e-26
0
2.67516221e-09
-5.78626473e-21
9.25573751e-20
3.06924363e-09
-5.78692064e-21
9.25630356e-20
3.47699788e-09
-5.78761408e-21
-1.85135689e-19
3.88586911e-09
0
0
4.2807565e-09
5.78890439e-21
-2.11632594e-24
4.64489625e-09
-5.78967163e-21
0
4.96118229e-09
-1.36852403e-25
5.21378451e-09
5.79056042e-21
1.85170678e-19
-5.78242067e-21
1.00021322e-11
1.15648415e-20
-1.15648609e-20
3.03448605e-11
-4.91779535e-28
-1.15648824e-20
5.19834283e-11
0
0
7.63099038e-11
5.78248235e-21
4.06551675e-27
1.04918824e-10
0
-4.62599228e-20
1.39541498e-10
1.15650909e-20
-4.62601209e-20
1.82128748e-10
0
4.62603621e-20
2.34903908e-10
-4.18715833e-27
4.62607151e-20
3.00440099e-10
5.78271996e-21
9.25222489e-20
3.8170289e-10
-1.15656336e-20
-9.25233198e-20
4.82044223e-10
1.15658729e-20
-9.25246733e-20
6.0527125e-10
0
9.2526432e-20
7.55547115e-10
-1.15665717e-20
0
9.37308194e-10
0
0
1.15520137e-09
0
-1.85068344e-19
1.41367514e-09
0
-9.25381003e-20
1.71659393e-09
0
9.25430008e-20
2.06683827e-09
5.78513104e-21
-9.25472805e-20
2.46565264e-09
0
6.14000113e-25
2.91190687e-09
5.78636318e-21
-7.29674658e-25
3.40132699e-09
-5.78730236e-21
0
3.92578869e-09
0
9.25760868e-20
4.47282913e-09
-5.78900314e-21
9.25816472e-20
5.02554225e-09
0
0
5.56304318e-09
0
-1.85194017e-19
6.0616502e-09
-1.63845089e-25
-1.8520558e-19
6.49680594e-09
-1.15849741e-20
6.84554831e-09
1.15860469e-20
-1.8521438e-19
-5.78242172e-21
1.15349789e-11
-5.78242172e-21
1.15648639e-20
3.50131862e-11
0
-1.14052257e-27
6.00499062e-11
-5.78246401e-21
0
8.83156982e-11
1.15649792e-20
4.50597343e-27
1.21734307e-10
0
2.31299878e-20
1.62414304e-10
-5.78256027e-21
0
2.12749588e-10
1.15652249e-20
-4.62605167e-20
2.75510486e-10
-1.15653512e-20
9.25218024e-20
3.53935297e-10
0
0
4.51777285e-10
-8.10397987e-27
4.62620284e-20
5.73396935e-10
0
-9.25256664e-20
7.23776526e-10
-5.78319611e-21
-9.25275394e-20
9.0842974e-10
0
-1.85060294e-19
1.13345159e-09
0
9.25331546e-20
1.40529896e-09
5.78403841e-21
-9.25372942e-20
1.73029014e-09
1.15689421e-20
-9.25419961e-20
2.11424753e-09
0
5.07175021e-25
2.56195767e-09
-5.7856319e-21
9.25542233e-20
3.07623521e-09
-5.78645336e-21
-9.25603342e-20
3.65686717e-09
-5.78725658e-21
-1.85139076e-19
4.29946567e-09
5.78835653e-21
1.07111644e-24
4.99432159e-09
0
-2.77767346e-19
5.72552622e-09
-1.44872204e-25
1.85199089e-19
6.47057339e-09
0
0
7.20076333e-09
0
0
7.8827179e-09
0
-1.85251476e-19
8.48114242e-09
1.15908622e-20
8.96261154e-09
5.79617954e-21
1.8526344e-19
-5.78242256e-21
1.31946076e-11
0
1.15648673e-20
4.00713603e-11
5.78244504e-21
2.47750135e-27
6.8804135e-11
5.78246949e-21
0
1.01378712e-10
-1.51071445e-27
2.31299282e-20
1.40093125e-10
-5.78253304e-21
-2.31300214e-20
1.87487812e-10
-5.78258039e-21
-9.25206114e-20
2.46474621e-10
0
0
3.20460998e-10
1.1565413e-20
0
4.13470036e-10
5.78279876e-21
9.25233075e-20
5.30247416e-10
-5.78292195e-21
5.40176853e-26
6.76365594e-10
-1.19081434e-26
7.03774527e-26
8.58230741e-10
5.78328617e-21
0
1.08314205e-09
0
0
1.35937877e-09
-5.78388119e-21
9.25352689e-20
1.69579089e-09
-5.78433472e-21
9.25401934e-20
2.10113241e-09
0
9.25458529e-20
2.58390795e-09
-1.15710412e-20
9.25533052e-20
3.15180694e-09
0
-9.25608447e-20
3.8101741e-09
5.78726975e-21
0
4.56059252e-09
-5.78839347e-21
1.11423339e-24
5.39924197e-09
-1.15793821e-20
9.25933531e-20
6.31504187e-09
-5.79115342e-21
9.26079792e-20
7.28818567e-09
0
0
8.28917691e-09
5.79423855e-21
1.85266853e-19
9.27893346e-09
-2.40336701e-25
0
1.02105781e-08
0
-1.85318451e-19
1.10333225e-08
-5.79930449e-21
1.16982737e-08
-5.80051899e-21
1.85335328e-19
-1.15648464e-20
1.49658709e-11
-5.7824233e-21
-8.39852324e-28
4.54736879e-11
0
2.31297967e-20
7.81688538e-11
0
2.31298615e-20
1.15387789e-10
0
5.30998716e-27
1.59847294e-10
-2.28453475e-27
0
2.1457581e-10
-5.78259083e-21
9.25207891e-20
2.83078184e-10
-5.78265382e-21
0
3.69499409e-10
0
3.44852851e-26
4.78788034e-10
-1.15656879e-20
4.62619054e-20
6.16854867e-10
-5.7829749e-21
9.25254126e-20
7.90719455e-10
0
0
1.00861743e-09
5.78338982e-21
0
1.28007545e-09
-5.7836926e-21
9.25339491e-20
1.61599097e-09
-1.15682209e-20
-3.46687149e-25
2.02819688e-09
0
9.25436089e-20
2.52895584e-09
5.78519421e-21
9.25504737e-20
3.13081181e-09
0
-9.25588521e-20
3.84521686e-09
-5.78700146e-21
9.25707337e-20
4.68109317e-09
-5.78817631e-21
-9.25809055e-20
5.64346673e-09
1.15790331e-20
1.85190902e-19
6.73037224e-09
0
1.85220878e-19
7.93000276e-09
-5.79310097e-21
-9.2627594e-20
9.21856169e-09
-2.23244573e-25
-2.26012878e-24
1.05582443e-08
-2.62413633e-25
0
1.18965333e-08
-5.79973754e-21
1.85362078e-19
1.31679672e-08
-1.7405618e-20
0
1.42993817e-08
-3.77713978e-25
1.52187711e-08
5.80530685e-21
3.70836779e-19
5.78242368e-21
1.68267091e-11
5.78242368e-21
-8.83258773e-28
5.11532561e-11
-5.78244915e-21
-1.15649031e-20
8.80294467e-11
5.78247567e-21
2.31298778e-20
1.30174729e-10
0
6.93899e-20
1.80766178e-10
5.78254758e-21
-2.31300787e-20
2.43374026e-10
1.1565201e-20
-9.25209438e-20
3.22169161e-10
5.78266578e-21
-2.79118027e-26
4.22134836e-10
5.78275389e-21
4.62614658e-20
5.49285176e-10
-5.78287825e-21
4.96868934e-26
7.10887918e-10
5.78302322e-21
-4.62630009e-20
9.15682534e-10
-5.78322444e-21
-4.62642818e-20
1.17407533e-09
-1.91349139e-26
0
1.49829023e-09
0
-9.25357899e-20
1.90243511e-09
0
-9.25409913e-20
2.40217111e-09
5.78488724e-21
-9.25476097e-20
3.01454576e-09
-5.78562597e-21
0
3.75727469e-09
0
0
4.64712691e-09
-9.27394799e-26
9.25787624e-20
5.69880784e-09
5.78903017e-21
-9.2592549e-20
6.92251525e-09
5.79072966e-21
9.26116429e-20
8.31989693e-09
-1.83825719e-25
1.9825372e-24
9.88012823e-09
1.15904134e-20
-9.26547963e-20
1.15761556e-08
-5.79801655e-21
-9.26792128e-20
1.33611257e-08
-1.16016038e-20
1.85408397e-19
1.51658807e-08
-3.78094243e-25
0
1.68998622e-08
5.80668171e-21
-1.8549064e-19
1.84576282e-08
5.8094545e-21
1.97321108e-08
-5.21959759e-25
0
-5.78242407e-21
1.87479779e-11
5.78242407e-21
2.3129749e-20
5.70213365e-11
-5.7824504e-21
-2.31298119e-20
9.82326678e-11
0
-4.20056568e-27
1.45511619e-10
0
2.31299821e-20
2.02531199e-10
-2.51708628e-27
-4.62602135e-20
2.73451129e-10
5.78260367e-21
9.25210642e-20
3.63174855e-10
-4.74223591e-27
-4.62609804e-20
4.77618102e-10
0
4.62615615e-20
6.23994358e-10
-8.63998482e-27
4.62623854e-20
8.11117096e-10
-1.15661387e-20
9.25266326e-20
1.0497108e-09
-5.78329892e-21
-9.43675724e-26
1.35271197e-09
-5.78359424e-21
0
1.73552653e-09
-5.78398214e-21
0
2.21618363e-09
5.78441601e-21
-9.25434321e-20
2.81527961e-09
0
-9.25510557e-20
3.55573303e-09
-1.25174702e-25
0
4.46180719e-09
1.1573987e-20
-1.8514391e-19
5.55797572e-09
5.78833519e-21
9.2589244e-20
6.8674543e-09
0
1.53576687e-24
8.4082334e-09
5.79224552e-21
9.26266378e-20
1.01883018e-08
0
-9.26519928e-20
1.22006496e-08
-5.79777119e-21
-9.26808156e-20
1.4417335e-08
5.80088894e-21
-9.27124546e-20
1.67833522e-08
-1.16097314e-20
0
1.92105266e-08
1.16174314e-20
0
2.15755718e-08
0
0
2.37267969e-08
5.81667942e-21
2.55028809e-08
5.8192742e-21
-1.85671717e-19
-2.25019981e-28
2.06937054e-11
5.78242423e-21
-9.25427009e-28
6.29681071e-11
5.78245092e-21
1.46964729e-27
1.08587665e-10
5.78247889e-21
-4.27722546e-27
1.61111771e-10
5.782513e-21
5.9945884e-27
2.24736065e-10
5.78255595e-21
-4.62602289e-20
3.0424725e-10
-3.56151702e-27
9.25211389e-20
4.05335918e-10
1.15653764e-20
-4.62610397e-20
5.34930465e-10
-5.78279097e-21
4.62616537e-20
7.01561463e-10
5.78291612e-21
4.62624739e-20
9.15759887e-10
-5.78310436e-21
4.62635673e-20
1.19048414e-09
-5.78334357e-21
1.3879496e-19
1.54155843e-09
-5.78363997e-21
0
1.98808704e-09
-2.9208176e-26
-9.25389395e-20
2.55278302e-09
-5.78460086e-21
-9.25455563e-20
3.26211717e-09
-5.7853694e-21
9.25535248e-20
4.14617027e-09
-6.82830229e-26
9.25644072e-20
5.2379501e-09
0
9.25793456e-20
6.57207372e-09
5.78900661e-21
9.25984926e-20
8.18275484e-09
-5.79096542e-21
1.75854905e-24
1.01001788e-08
-1.95670497e-25
2.23027113e-24
1.23439877e-08
0
-9.26783742e-20
1.49147503e-08
-5.8003764e-21
3.44512921e-24
1.77879838e-08
-5.8047222e-21
-4.18261782e-24
2.09056305e-08
0
1.85597071e-19
2.41613411e-08
5.81460902e-21
0
2.73919395e-08
3.14590786e-21
3.71555872e-19
3.03808731e-08
5.12124206e-22
3.2880917e-08
5.52614552e-22
0
5.78242412e-21
2.2621859e-11
5.78242412e-21
2.31297495e-20
6.88649479e-11
5.78245059e-21
1.15649053e-20
1.18869808e-10
0
2.31298858e-20
1.7663509e-10
-1.79524436e-27
2.31299951e-20
2.46893608e-10
-5.78256077e-21
-2.31301199e-20
3.35082095e-10
-5.78261566e-21
-9.25211567e-20
4.47714984e-10
5.7826872e-21
0
5.92791118e-10
-5.78279461e-21
4.19272524e-26
7.8024787e-10
-9.09994384e-27
4.62625443e-20
1.0224713e-09
-1.23409858e-26
-1.38790987e-19
1.33486244e-09
-5.78336743e-21
1.03532054e-25
1.73644704e-09
-1.1567381e-20
-2.78491242e-25
2.25049666e-09
5.78411837e-21
-9.25399596e-20
2.90510167e-09
4.07450282e-26
9.25471451e-20
3.7335981e-09
5.78547793e-21
-9.25565907e-20
4.77470129e-09
5.78649921e-21
0
6.07212436e-09
5.78783652e-21
1.15839232e-24
7.67341702e-09
-1.27368406e-25
1.51519742e-24
9.62764817e-09
5.79180824e-21
9.26311544e-20
1.19819661e-08
-2.17625371e-25
2.52888593e-24
1.47736046e-08
0
-9.26962738e-20
1.80199934e-08
-5.80296547e-21
-9.2741832e-20
2.17108383e-08
-5.80837737e-21
-9.27998943e-20
2.57933839e-08
-5.81419892e-21
0
3.01505904e-08
-2.6486025e-21
0
3.45797821e-08
-1.42869896e-20
-1.85989438e-19
3.87787354e-08
-2.91865909e-20
4.2361493e-08
-2.33790139e-20
-1.86093001e-19
0
2.44856544e-11
-5.78242392e-21
0
7.45684359e-11
-5.78244866e-21
1.41508955e-27
1.28827577e-10
-5.78247747e-21
4.62597662e-20
1.916983e-10
0
2.3129986e-20
2.68450036e-10
5.78255174e-21
4.62602183e-20
3.65174059e-10
0
0
4.89221557e-10
5.78268633e-21
0
6.49688476e-10
-6.58007879e-27
4.14931969e-26
8.57967822e-10
-5.78292612e-21
5.64965963e-26
1.12838493e-09
0
4.62636883e-20
1.47892336e-09
5.78334866e-21
1.04170598e-25
1.93203707e-09
5.78368379e-21
-2.82060283e-25
2.51552529e-09
0
1.85080399e-19
3.26341849e-09
-1.15695669e-20
5.13109337e-25
4.21678121e-09
5.78555399e-21
-6.88850482e-25
5.42427879e-09
5.78671117e-21
9.25703906e-20
6.94227283e-09
5.78807046e-21
9.25887815e-20
8.83411632e-09
0
0
1.11682044e-08
-5.79260857e-21
-1.85277448e-19
1.40142638e-08
-5.79586349e-21
0
1.74357238e-08
-1.16000648e-20
-3.61478216e-24
2.14810872e-08
-4.00269381e-25
9.27888371e-20
2.61723733e-08
-2.67245619e-21
-1.85704934e-19
3.14817865e-08
-1.1097483e-20
-1.8586394e-19
3.73037339e-08
-2.00926676e-20
1.8606743e-19
4.34165467e-08
-2.92019609e-20
0
4.94233486e-08
-2.34084005e-20
5.47140047e-08
-1.75889516e-20
1.86404862e-19
5.78242296e-21
2.6235404e-11
-2.02355445e-28
-1.15648709e-20
7.9925992e-11
0
-1.15648967e-20
1.38192468e-10
0
-3.90180654e-27
2.05890027e-10
-1.64124817e-27
0
2.88806692e-10
5.78254394e-21
-4.6260155e-20
3.9367083e-10
-3.29560111e-27
0
5.28654359e-10
0
4.62609262e-20
7.03937984e-10
1.15655352e-20
4.62615705e-20
9.323662e-10
-8.60404081e-27
-4.62623538e-20
1.2302158e-09
5.78308575e-21
0
1.61809541e-09
1.15666498e-20
4.62649955e-20
2.12198332e-09
-5.78366903e-21
9.25343949e-20
2.7743943e-09
-5.78412521e-21
-9.25400793e-20
3.61563926e-09
-5.78474305e-21
0
4.69510104e-09
0
-9.255806e-20
6.07238869e-09
5.78655153e-21
0
7.81814818e-09
-1.15763167e-20
-9.25890247e-20
1.00142005e-08
-5.79022258e-21
9.26130044e-20
1.27525514e-08
0
-9.26445982e-20
1.61326823e-08
0
9.26830941e-20
2.02563393e-08
0
-1.85480285e-19
2.5219905e-08
-5.80759163e-21
-9.28049406e-20
3.11033652e-08
-1.16310078e-20
-9.29000441e-20
3.79494719e-08
-2.91242398e-20
-3.72052739e-19
4.57228753e-08
-2.33501213e-20
0
5.42460878e-08
-2.92673369e-20
-1.86640707e-19
6.3070233e-08
-1.76158584e-20
7.12462964e-08
-1.76726545e-20
1.8693537e-19
5.78242189e-21
2.78208108e-11
0
1.15648657e-20
8.47829516e-11
1.15648869e-20
2.31297835e-20
1.46691493e-10
-9.82897304e-28
2.31298459e-20
2.1879014e-10
-2.98375047e-27
-2.3129924e-20
3.07348555e-10
-5.78253429e-21
0
4.19690533e-10
0
-4.62603831e-20
5.64760155e-10
0
9.2521617e-20
7.53765728e-10
5.78273569e-21
3.6728122e-26
1.00093673e-09
-7.93006047e-27
4.62621799e-20
1.32442658e-09
-5.7830353e-21
6.91872622e-26
1.7473901e-09
5.7832526e-21
9.25294409e-20
2.29925748e-09
-5.78356462e-21
0
3.01721404e-09
0
0
3.94787414e-09
-5.78461073e-21
0
5.14910362e-09
-1.15707808e-20
-6.61344292e-25
6.69189559e-09
-7.16448769e-26
0
8.66213745e-09
0
9.25898394e-20
1.11620362e-08
0
9.2613594e-20
1.43109188e-08
-1.80222438e-25
9.26495473e-20
1.82451472e-08
0
9.26928375e-20
2.3117044e-08
-3.30835437e-25
4.12233764e-24
2.90930971e-08
-8.44583123e-21
0
3.63514478e-08
-2.60104942e-21
0
4.50772817e-08
-1.74875377e-20
0
5.54389691e-08
-1.75384852e-20
0
6.7483636e-08
-1.17377686e-20
1.87157521e-19
8.08878087e-08
-1.76979539e-20
9.42752556e-08
-1.78005342e-20
-1.87756921e-19
0
2.91935818e-11
-5.78242067e-21
-1.15648607e-20
8.89906204e-11
1.15648784e-20
2.31297653e-20
1.5406153e-10
-8.52331724e-28
2.31298197e-20
2.29992144e-10
5.78248441e-21
4.62597893e-20
3.23477686e-10
-5.78251645e-21
-2.31299963e-20
4.42370878e-10
0
0
5.9630551e-10
-3.64816445e-27
0
7.97412931e-10
-5.78270053e-21
9.25222841e-20
1.06117404e-09
5.78281038e-21
9.25236364e-20
1.40744866e-09
-5.78296123e-21
0
1.86172302e-09
-1.32224e-26
8.43095758e-26
2.45661287e-09
5.78345326e-21
0
3.23365307e-09
-5.7838443e-21
9.25365043e-20
4.24539161e-09
-1.15687274e-20
1.85086821e-19
5.55778564e-09
1.15701861e-20
-6.00439093e-25
7.25286845e-09
-5.78605979e-21
0
9.43163314e-09
-5.7874159e-21
-9.2582065e-20
1.22170951e-08
5.78939507e-21
9.26071918e-20
1.57576341e-08
-1.67310058e-25
9.26445587e-20
2.0231126e-08
-5.79555699e-21
-9.26835047e-20
2.58512839e-08
-2.65958176e-21
9.27517071e-20
3.28792292e-08
-2.00441673e-20
0
4.16452173e-08
-1.74514367e-20
-9.29862299e-20
5.25854968e-08
-1.74950256e-20
-1.86376608e-19
6.62907968e-08
-1.75608409e-20
1.87063809e-19
8.34879075e-08
-1.7662261e-20
0
1.04534235e-07