/*--------------------------------*- C++ -*----------------------------------*\
| =========                 |                                                 |
| \\      /  F ield         | foam-extend: Open Source CFD                    |
|  \\    /   O peration     | Version:     4.1                                |
|   \\  /    A nd           | Web:         http://www.foam-extend.org         |
|    \\/     M anipulation  |                                                 |
\*---------------------------------------------------------------------------*/
FoamFile
{
    version     2.0;
    format      ascii;
    class       volScalarField;
    location    "0.55";
    object      p;
}
// * * * * * * * * * * * * * * * * * * * * * * * * * * * * * * * * * * * * * //

dimensions      [0 2 -2 0 0 0 0];

internalField   nonuniform List<scalar> 
35840
(
79.3727704
64.7284689
55.6634868
51.343126
48.3922342
46.0528879
44.2128414
42.6978867
41.3720046
40.1649228
39.0392657
37.9721182
36.9488031
35.9596403
34.9978346
34.0583031
33.1370784
32.2309789
31.3374248
30.4543235
29.5799845
28.713064
27.8525235
26.9975937
26.147744
25.3026545
24.46219
23.6263734
72.4927693
62.0870338
54.901453
51.1215839
48.3526095
46.0700976
44.2500359
42.7451911
41.4213043
40.2112243
39.0809558
38.0089564
36.9809634
35.987492
35.02183
34.0788943
33.1546781
32.2459609
31.3501257
30.4650343
29.5889566
28.7205199
27.8586649
27.0026055
26.1517983
25.3059138
24.4648086
23.6284986
69.3021749
60.538038
54.1841655
50.6824248
48.0978774
45.9411333
44.1932348
42.7311654
41.4327467
40.2367564
39.1136666
38.0447889
37.017524
36.0234184
35.0563837
34.1116816
33.1854854
32.2746635
31.3766398
30.4893019
29.610937
28.7401826
27.8759901
27.0175895
26.1644579
25.3162905
24.4729726
23.6345502
67.6851876
59.349732
53.4514134
50.2249617
47.8323655
45.8146579
44.1548014
42.7449905
41.4767467
40.2968839
39.1811517
38.1144317
37.0863747
36.089899
35.1197196
34.1715291
33.2417056
32.3271952
31.4254362
30.5343038
29.6520661
28.77735
27.9091051
27.0465721
26.1892534
25.3368827
24.489395
23.6468952
66.5845844
58.3818257
52.77715
49.7928202
47.5709462
45.6815395
44.1131006
42.763131
41.5320468
40.3739883
39.2698284
38.2080621
37.1808225
36.1826647
35.2093422
34.257175
33.3228956
32.4036326
31.4969043
30.6006095
29.7130157
28.8327469
27.9587552
27.0902983
26.2269136
25.3683897
24.5147339
23.6661381
65.7870309
57.6552786
52.2213328
49.4012424
47.309686
45.5275394
44.043894
42.7557476
41.5674795
40.4380518
39.3521951
38.3013544
37.2798851
36.2839469
35.3104085
34.3563403
33.4189635
32.4957129
31.5842906
30.6827002
29.7892744
28.9026811
28.021912
27.146275
26.275375
25.4090888
24.5475333
23.6910285
65.1879704
57.0971787
51.7620034
49.0509085
47.0576776
45.3622352
43.9515003
42.7207619
41.575787
40.4781558
39.4150583
38.3800117
37.3690552
36.3796524
35.4096417
34.4567954
33.5188303
32.5935227
31.6788049
30.7728359
29.8740584
28.9812228
28.0933991
27.2099824
26.3306831
25.4555077
24.5847286
23.7188448
64.7216762
56.6552073
51.3811433
48.7442931
46.8245382
45.1974416
43.8468748
42.6663041
41.5616508
40.4956769
39.4569658
38.4403576
37.4430412
36.463419
35.5000644
34.5513082
33.6152813
32.6900597
31.7737869
30.8647765
29.9615852
29.0630557
28.1683528
27.2769802
26.3887825
25.5039321
24.6229027
23.7464271
64.3499896
56.2993276
51.0654113
48.4799865
46.614701
45.0409016
43.739279
42.6014586
41.5329189
40.4967664
39.482262
38.4850182
37.5029534
36.5350961
35.5805299
34.637986
33.7058989
32.7825657
31.8662893
30.9554982
30.0488323
29.1452118
28.2438876
27.3444742
26.446964
25.5517235
24.6594697
23.7712253
64.0491549
56.0093827
50.8029866
48.2539972
46.4294145
44.8972827
43.6354032
42.5336811
41.4969122
40.4880948
39.4967084
38.5187499
37.5525542
36.5975295
35.6530801
34.7181934
33.7914955
32.8714174
31.9563522
31.0447824
30.1353847
29.2271181
28.3192926
27.4116183
26.5042371
25.5977304
24.6931005
23.7917205
63.8033097
55.7713433
50.5845488
48.0621069
46.2684128
44.7691112
43.5396106
42.468323
41.4593082
40.47523
39.5055082
38.5462583
37.5960023
36.6543374
35.7208332
34.7946056
33.8743664
32.9585931
32.0456883
31.1341173
30.2225307
29.3098714
28.3954629
27.4790823
26.5610114
25.6420615
24.723563
23.8073127
63.6013924
55.575227
50.4028928
47.900341
46.1305205
44.6573901
43.454475
42.4089529
41.4241862
40.4624121
39.5128363
38.5715218
37.6370156
36.70896
35.7869636
34.8701602
33.9572503
33.0466671
32.1367352
31.2258205
30.3124689
29.3955325
28.4742838
27.5485181
26.6186336
25.6856808
24.7513672
23.8180033
63.43538
55.4136673
50.2523424
47.7651028
46.0141163
44.5621692
43.3813385
42.3578148
41.3943452
40.452726
39.5218766
38.5977062
37.6786783
36.7643759
35.8543468
34.9476496
34.0428841
33.1383454
32.2321878
31.3225826
30.4078714
29.4867171
28.5582507
27.622212
26.6790715
25.7301182
24.7774897
23.8241234
63.2992359
55.2810414
50.1283481
47.6532159
45.9174181
44.4829246
43.32071
42.3161934
41.3716046
40.4483269
39.5349732
38.6272471
37.7234627
36.8230703
35.9254837
35.0296105
34.1338637
33.2363105
32.3348352
31.4273024
30.5117275
29.5864554
28.6503491
27.7029818
26.7448201
25.7773704
24.8032556
23.8261825
63.1882632
55.1729233
50.0271886
47.5618852
45.8386184
44.4187892
43.2725352
42.284683
41.3570439
40.4506376
39.553782
38.6619585
37.7732963
36.8870705
36.0025107
35.118309
34.2326175
33.343188
32.4475276
31.5430658
30.6273412
29.6982125
28.7540981
27.7942397
26.8189713
25.8299596
24.8303612
23.8248322
63.0986918
55.0857249
49.9457509
47.4886347
45.7759458
44.3686921
43.2363761
42.2633767
41.351179
40.4604988
39.57939
38.7031184
37.8296214
36.9579819
36.0872112
35.2157394
34.341398
33.4615392
32.5731807
31.6731705
30.7583865
29.825982
28.8736867
27.9001642
26.9054061
25.8911165
24.8610097
23.8209124
63.027406
55.0164557
49.881371
47.4312444
45.7276864
44.3314398
43.2115263
42.2519938
41.3540852
40.4782755
39.6123979
38.75153
37.8934344
37.0370004
36.1810093
35.323607
34.4622581
33.593841
32.7147703
31.8211498
30.9089756
29.9744127
29.0141661
28.0259575
27.0090951
25.9650817
24.8981512
23.8155605
62.9717612
54.9625579
49.8317183
47.3876961
45.692185
44.3057602
43.1970826
42.2499636
41.3654792
40.5039276
39.6529761
38.8075598
37.9652949
37.1248992
36.2849408
35.4432807
34.5969943
33.7424295
32.875292
31.9907675
31.0837119
30.1489443
29.1816871
28.1781869
27.1365231
26.0575549
24.9458589
23.8104008
62.9294581
54.9217927
49.7947119
47.3561274
45.6678376
44.2903259
43.191989
42.2564787
41.3847711
40.5370566
39.7009012
38.8711475
38.0453131
37.2219955
36.3995923
35.575711
34.7470482
33.9093953
33.0576659
32.1859594
31.2877033
30.3559313
29.3837721
28.3652252
27.2962781
26.1763508
25.0099002
23.8078347
62.8984564
54.8921616
49.7684613
47.3347977
45.6530817
44.2837672
43.1950645
42.270528
41.4111029
40.5769411
39.7555681
38.9417976
38.1331223
37.3280936
36.5250138
35.7213086
34.9133535
34.096409
33.2645619
32.4106883
31.5264945
30.6027172
29.6296021
28.5978082
27.4998837
26.3324039
25.0986602
23.8115058
62.8769161
54.8718523
49.7512249
47.3220635
45.6463905
44.2846804
43.2050178
42.2909275
41.4433814
40.6225508
39.8159908
39.0185681
38.2278395
37.4424107
36.660602
35.87978
35.0961215
34.3044606
33.4981081
32.6686594
31.8058537
30.8975873
29.9302568
28.8896854
27.7629357
26.5413431
25.2248402
23.8274635
62.8631602
54.8592043
49.7413846
47.3163644
45.6462702
44.2916292
43.220475
42.3163511
41.4802934
40.6725587
39.8808109
39.1000564
38.3280209
37.5634923
36.8049631
36.0499234
35.2945584
34.5334906
33.7594439
32.9628309
32.1313176
31.2494794
30.2987773
29.2582396
28.1064163
26.8254172
25.4075869
23.8657315
62.8556569
54.8526867
49.7374312
47.3162175
45.6512559
44.3031721
43.240009
42.3453453
41.5203276
40.7253674
39.9483098
39.1843922
38.4316257
37.6891313
36.9557681
36.2293968
35.5065167
34.7818997
34.0480748
33.2946302
32.5073518
31.6672828
30.7499448
29.7252057
28.5587064
27.2164961
25.6746979
23.9389103
62.8530218
54.8508916
49.7379507
47.3202216
45.6599422
44.3178907
43.2621504
42.3763567
41.5618154
40.7791448
40.0164383
39.2692526
38.5360047
37.8163123
37.1096258
36.4144822
35.7281036
35.0459437
34.3609937
33.6627655
32.9358846
32.1582859
31.2991598
30.3171347
29.1597595
27.7665327
26.0793466
24.0771072
62.8539717
54.8525367
49.7416547
47.327071
45.6709969
44.3343957
43.2854186
42.4077822
41.602981
40.8318788
40.0828714
39.351912
38.6379327
37.9412076
37.2620117
36.5998985
35.9533059
35.3190669
34.6915957
34.0615791
33.4139708
32.7250702
31.9586162
31.0610945
29.9577876
28.5508709
26.7268559
24.3917958
62.8573267
54.8564806
49.7473947
47.3355623
45.6831653
44.35136
43.3083746
42.4380246
41.6420081
40.8814555
40.145099
39.4293403
38.7337079
38.0592612
37.4073058
36.7787394
36.1737323
35.5913041
35.028525
34.4790799
33.9307853
33.361448
32.7322745
31.9777846
30.9932589
29.6203581
27.6664344
24.8962069
62.8620758
54.8617292
49.7541478
47.3446191
45.6953161
44.3675649
43.3296711
42.465557
41.6771228
40.9257636
40.2005539
39.4983586
38.8193352
38.1653953
37.5390032
36.9426385
36.3786336
35.8489558
35.3546624
34.8947212
34.4636454
34.0469346
33.6121733
33.0916583
32.3490244
31.1167954
28.9629716
25.044478
62.8673861
54.8674416
49.7610453
47.3533283
45.7064736
44.3819425
43.348109
42.4889977
41.7066904
40.9628209
40.2467769
39.5558543
38.8908056
38.2543671
37.6501572
37.0822891
36.5554312
36.0749293
35.6467778
35.2772302
34.9716593
34.7318106
34.5492102
34.3897913
34.1567677
33.5993244
32.0156281
26.6677597
72.6520021
62.209913
54.9742334
51.1457692
48.3411076
46.0337575
44.1970297
42.6827996
41.3555298
40.1463894
39.0198505
37.9531578
36.9311593
35.943774
34.9839321
34.046365
33.1269937
32.2225855
31.3305444
30.448776
29.5755971
28.709675
27.8499815
26.9957566
26.1464776
25.3018318
24.4616899
23.6260807
64.9322739
59.5380271
54.6171552
51.3433178
48.6726012
46.3599606
44.4654836
42.8944305
41.5218337
40.2775432
39.1248422
38.0389654
37.0025072
36.0038181
35.0348921
34.089867
33.1642671
32.2545946
31.3580702
30.4724641
29.5959915
28.7272422
27.8651294
27.0088469
26.1578356
25.311753
24.4704454
23.6339194
61.6918918
58.1887328
54.1958641
51.1257293
48.5915474
46.3838081
44.5303861
42.9689434
41.5965966
40.3485877
39.1905416
38.0992674
37.0578507
36.0546613
35.0816425
34.132866
33.2037809
32.2908241
31.3911662
30.5025425
29.6231442
28.7515454
27.8866516
27.0276573
26.1740113
25.3253853
24.4816447
23.6428192
60.1154187
57.0327998
53.5193125
50.7294524
48.3845669
46.3172885
44.5478273
43.0295608
41.678365
40.4387902
39.2815645
38.1871883
37.1409947
36.1324729
35.1540904
34.2001404
33.2661268
32.3484581
31.4442471
30.551168
29.6673606
28.7913625
27.9220591
27.0586424
26.2005753
25.3475586
24.4994995
23.6564791
59.0094982
56.0336607
52.834732
50.3152998
48.1443198
46.2008032
44.5198613
43.0593966
41.7439064
40.5251906
39.3786519
38.2882471
37.2418812
36.2307541
35.2483933
34.2897247
33.3506051
32.4276175
31.517945
30.619278
29.7297495
28.8478869
27.9725736
27.1030143
26.2387032
25.3793921
24.5250567
23.6758616
58.2021263
55.288615
52.268644
49.9275753
47.887084
46.0456992
44.4468033
43.0472875
41.774659
40.5853787
39.4582729
38.3798092
37.3399659
36.3315636
35.3492935
34.3888817
33.4467177
32.5197254
31.6052965
30.7012457
29.8057818
28.9174853
28.0352875
27.1584488
26.286535
25.419389
24.5570983
23.6999567
57.5949784
54.717053
51.7968462
49.5725985
47.6328848
45.8763824
44.348731
43.0057894
41.7761825
40.6190483
39.5155075
38.4537696
37.4252934
36.4241404
35.4459647
34.4872053
33.5447685
32.615943
31.6983714
30.7900401
29.8892792
28.9947643
28.1055145
27.220885
26.3405537
25.464499
24.5929685
23.7264394
57.1217041
54.2642144
51.4048428
49.2602528
47.3970712
45.7086274
44.2401778
42.9467408
41.757081
40.6315768
39.5527244
38.5098973
37.4955652
36.5046632
35.5335557
34.5792321
33.6390141
32.7104967
31.7915438
30.8803012
29.975219
29.0750738
28.1789849
27.2864215
26.3972004
25.511471
24.6296871
23.7525641
56.7443383
53.9001772
51.0806434
48.9910934
47.1848552
45.5500213
44.1301715
42.8791904
41.7254346
40.6296726
39.5751112
38.5518407
37.5529896
36.5740805
35.611972
34.6640472
33.7279288
32.8014344
31.8825881
30.96965
30.0611581
29.1559683
28.2532875
27.3526978
26.4541668
25.5580403
24.6650187
23.7761122
56.4390507
53.6041179
50.8117974
48.7611222
46.9975052
45.4049316
44.0248937
42.8099875
41.6879484
40.6194889
39.5880758
38.5841694
37.601283
36.6353009
35.6833968
34.7432076
33.8125474
32.8893686
31.9717824
31.0581038
30.1469088
29.2370917
28.3279175
27.4190632
26.5106462
25.6032307
24.6978051
23.7957306
56.1897488
53.3614304
50.5884498
48.5660553
46.8348067
45.2756996
43.928287
42.7439268
41.6496792
40.6059749
39.5962565
38.6111029
37.644202
36.6916207
35.7506968
34.8191972
33.8950236
32.9761729
32.0607652
31.1470999
30.2337255
29.3195173
28.4037531
27.4861773
26.5670472
25.6471558
24.7278202
23.8108285
55.9851513
53.1617387
50.4030034
48.4017724
46.6955284
45.1631675
43.842642
42.6842189
41.6143046
40.5929505
39.603416
38.6362328
37.6851108
36.7461615
35.8167634
34.8947045
33.9778754
33.0642273
32.151804
31.2388049
30.323672
29.4051882
28.4825787
27.5556029
26.6246326
25.6906994
24.7554979
23.8213323
55.8170504
52.9973878
50.2494781
48.2645176
46.5779774
45.0672904
43.7691512
42.6329165
41.5844038
40.5832643
39.6124979
38.6624902
37.7268695
36.8016902
35.8842747
34.9723373
34.0636665
33.1560779
32.2474461
31.335774
30.4192973
29.4966073
28.5667837
27.6295268
26.6852776
25.7353035
24.7817291
23.8274874
55.6792607
52.8625446
50.1231037
48.1509891
46.4803165
44.9874929
43.7082485
42.5912074
41.5616837
40.5789492
39.625721
38.6921869
37.7718301
36.860578
35.9556219
35.0545245
34.1548907
33.2543115
32.3503903
31.4408221
30.5235134
29.5967335
28.6592888
27.7107081
26.7514221
25.7829113
24.807783
23.8297417
55.5669698
52.752631
50.020001
48.0582974
46.4006951
44.922877
43.6598417
42.5596392
41.5471702
40.5813704
39.6446819
38.7270786
37.8218654
36.924799
36.0328864
35.1434795
34.2539281
33.3615083
32.4634458
31.5569985
30.639593
29.7090074
28.7635967
27.8025488
26.8261525
25.8360394
24.8353454
23.828725
55.4763198
52.6639481
49.9369433
47.9838957
46.3373088
44.8723522
43.6234745
42.5382845
41.5413565
40.5913441
39.6704433
38.7684217
37.8783972
36.9959343
36.1178286
35.2411784
34.3630152
33.4802163
32.5895182
31.6875968
30.7712145
29.8374377
28.8839224
27.9092649
26.9133951
25.8979659
24.8666591
23.8252979
55.4041293
52.5934251
49.8711849
47.9255123
46.2884191
44.8347127
43.5984318
42.5268549
41.5443098
40.6092276
39.7036007
38.8170147
37.9424113
37.0751709
36.2118693
35.3493247
34.484204
33.6129143
32.7315918
31.8361679
30.9225204
29.9867194
29.0253824
28.0361429
27.0182207
25.9730377
24.9047702
23.8206657
55.3477054
52.5384463
49.8203363
47.8810912
46.2523527
44.8086779
43.5838064
42.5247775
41.555746
40.6349832
39.7443271
38.8732187
38.0144644
37.1632847
36.3160476
35.4692901
34.6192967
33.7619499
32.8926816
32.0065079
31.0981645
30.1623675
29.1942331
28.189889
27.1472822
26.0671383
24.9539283
23.8165875
55.3047138
52.4967312
49.7822747
47.848743
46.2274923
44.7929151
43.5785409
42.5312463
41.5750813
40.668218
39.7923941
38.9369717
38.0946713
37.2605973
36.4309528
35.6020299
34.7697433
33.9294282
33.075733
32.2025948
31.303323
30.3708412
29.3981495
28.3790838
27.3094278
26.1883754
25.0201863
23.815683
55.2730893
52.466252
49.7550801
47.8267083
46.2122667
44.7860513
43.5814551
42.5452582
41.6014634
40.7082038
39.8471942
39.0077834
38.1826685
37.366914
36.5566371
35.7479591
34.9364854
34.1170341
33.2834424
32.4284392
31.5436234
30.6196205
29.6465239
28.6147669
27.5165791
26.3481486
25.1123663
23.8218555
55.2509757
52.4451766
49.7369916
47.8133314
46.2051434
44.7866821
43.5912675
42.5656329
41.63379
40.7539064
39.9077465
39.0847128
38.277572
37.4814518
36.692498
35.9067856
35.1197379
34.3257673
33.5179604
32.6877936
31.8249253
30.9171548
29.9507086
28.91111
27.7849431
26.5628833
25.2440195
23.8417693
55.2366852
52.4318321
49.7263792
47.807045
46.2046265
44.7933836
43.6066047
42.5910326
41.6707429
40.8040029
39.9726911
39.1663552
38.3779365
37.6027541
36.8371385
36.0773038
35.3187035
34.5555681
33.7804368
32.9836519
32.1528519
31.2725568
30.3240597
29.2860032
28.1362172
26.8557506
25.4353679
23.8866916
55.228673
52.4246811
49.7217294
47.8063675
46.2092639
44.8047123
43.6260252
42.6199978
41.7108137
40.8568937
40.0403071
39.2508376
38.4817175
37.7286087
36.9882217
36.2571602
35.5312195
34.8048204
34.0703647
33.3174485
32.5319264
31.6948845
30.7817288
29.7618372
28.5996469
27.2592041
25.7132588
23.9657866
55.2255206
52.4223073
49.7216344
47.8099016
46.2176461
44.8192315
43.648054
42.6509781
41.7523318
40.9107446
40.1085426
39.3358333
38.58626
37.8559911
37.1423426
36.4426162
35.7533636
35.0697387
34.3846851
33.6878382
32.9640517
32.1915017
31.3394688
30.3661059
29.2173107
27.8289685
26.1337421
24.1046816
55.2259549
52.4234321
49.7248042
47.8163341
46.2284234
44.8355493
43.6712136
42.6823703
41.7935205
40.9635415
40.1750693
39.4186113
38.6883306
37.981061
37.2949575
36.6283609
35.9790756
35.3436967
34.7166899
34.0890204
33.4460975
32.7647614
32.0091143
31.1253638
30.0373367
28.6430069
26.8128302
24.4432363
55.2288529
52.426927
49.7300811
47.8244576
46.2403434
44.8523427
43.6940679
42.7125775
41.8325625
41.0131681
40.2373729
39.496135
38.7842176
38.0992475
37.4404225
36.8074488
36.1999009
35.6166273
35.0548673
34.5087817
33.9669524
33.4080989
32.7939628
32.0581066
31.0918359
29.7220774
27.7321606
24.8851864
55.2332301
52.4318027
49.7364446
47.8332027
46.2522802
44.8683974
43.7152725
42.7400742
41.8676834
41.057511
40.2928821
39.5652189
38.8699161
38.2054568
37.5722065
36.9714689
36.4050119
35.8746951
35.381871
34.926234
34.5035313
34.1008731
33.6874748
33.195155
32.4792057
31.223448
28.9108418
24.4395585
55.2382586
52.4372235
49.7430327
47.8416633
46.2632637
44.8826499
43.7336311
42.7634797
41.8972479
41.0945858
40.3391338
39.622745
38.9414084
38.2944327
37.6833392
37.1110707
36.581746
36.1006414
35.6741425
35.3094689
35.0137325
34.7914615
34.6388522
34.5288485
34.3723301
33.8992848
32.3361337
25.937357
69.7348293
60.9264062
54.4886539
50.884284
48.2077812
45.9750346
44.1667181
42.6605425
41.3331475
40.1205018
38.990032
37.9203353
36.8965855
35.9086384
34.9492147
34.0127878
33.095038
32.1925424
31.3025655
30.4229158
29.5518465
28.6879832
27.8302713
26.9779332
26.130434
25.2874517
24.4488493
23.614649
61.9785958
58.4739666
54.4530886
51.3289769
48.7342921
46.4712261
44.5715606
42.9744856
41.5766398
40.3113957
39.1423699
38.0447258
37.0002572
35.9963421
35.0241924
34.0773578
33.1509219
32.24107
31.3448035
30.4597451
29.5840102
28.7161204
27.8549407
26.9996307
26.1496053
25.3045013
24.4641472
23.6285342
58.7360218
57.2408707
54.2436795
51.3060981
48.817886
46.6408232
44.7508359
43.1283123
41.7051795
40.420116
39.2352238
38.1251067
37.0709202
36.0592198
35.0806131
34.1282686
33.1970055
32.2828194
31.3825812
30.4938255
29.6146085
28.7434126
27.8790787
27.0207546
26.167853
25.3200167
24.4770864
23.6390697
57.1799992
56.118228
53.6360577
50.9986729
48.7035463
46.6662841
44.8500348
43.2536717
41.8360609
40.5478134
39.3551544
38.2355264
37.1718673
36.1513755
35.1647743
34.2051972
33.2673636
32.3471361
31.4412536
30.547138
29.6627569
28.7865288
27.9172547
27.0540646
26.1963736
25.3438441
24.4963505
23.653945
56.0772223
55.1169854
52.9682555
50.6260645
48.5121563
46.5966814
44.8643009
43.3188597
41.9298907
40.6570122
39.4711062
38.3525636
37.2865645
36.2617737
35.2697805
34.3042423
33.3601863
32.4336306
31.5213729
30.6208433
29.7299961
28.8472334
27.9713484
27.1014787
26.2370666
25.3778217
24.5236836
23.6747851
55.2651099
54.3645833
52.4035009
50.2537303
48.2745061
46.4594583
44.8074596
43.3210076
41.9723694
40.7268
39.5589929
38.4516284
37.3917157
36.3693835
35.3772652
34.4097416
33.4623445
32.5314328
31.6140237
30.7076848
29.8104596
28.9208142
28.0375988
27.1600138
26.2875788
25.4200994
24.557631
23.7004394
54.6512084
53.7839056
51.9247418
49.8990147
48.0243818
46.294498
44.7137801
43.2838903
41.9777282
40.7636356
39.6189902
38.5282204
37.4797232
36.4648006
35.4769831
34.5113027
33.5637687
32.6310885
31.7105283
30.7998326
29.8971749
29.0011267
28.1106358
27.225007
26.3438804
25.4672052
24.5952051
23.7283363
54.1709071
53.3218195
51.52358
49.5816854
47.7867047
46.1256938
44.6045779
43.2247059
41.9587419
40.776302
39.6563654
38.5846003
37.5504048
36.5459455
35.5654463
34.6044603
33.6593843
32.7272139
31.8054259
30.8919196
29.9849883
29.083307
28.1859275
27.2922731
26.4021289
25.5156216
24.6331875
23.7555283
53.7871569
52.949646
51.1908043
49.3063268
47.5703935
45.9638005
44.49186
43.1551714
41.9256959
40.7733465
39.6779298
38.625911
37.6073706
36.6150793
35.6437669
34.6893778
33.748599
32.8186377
31.8971221
30.9820595
30.0718263
29.1651735
28.2612395
27.3595607
26.4600739
25.5631055
24.6693427
23.7797855
53.4764424
52.6467909
50.9145716
49.0703129
47.3783921
45.8148048
44.383337
43.0834907
41.8863923
40.7618018
39.6898431
38.6574119
37.6550052
36.6757802
35.7148026
34.7682809
33.8330946
32.9065821
31.9864551
31.0707709
30.1579389
29.2467443
28.33638
27.4264757
26.517117
25.6088463
24.7026388
23.7998507
53.2226647
52.3985477
50.6851016
48.8699301
47.2113137
45.681812
44.2835936
43.0149974
41.8463142
40.7469421
39.6970045
38.6835557
37.6972963
36.7315912
35.7816923
34.8439519
33.915343
32.9932509
32.0753954
31.1598153
30.2448898
29.3293817
28.4124929
27.4939149
26.5738698
25.653128
24.7329934
23.8152492
53.0144251
52.194357
50.4946704
48.7011742
47.0681928
45.5659155
44.1951256
42.9530818
41.8092868
40.7326939
39.7032517
38.7079929
37.7376641
36.7856979
35.8474068
34.9191777
33.9979813
33.0811614
32.1663621
31.2515217
30.3349102
29.4151939
28.4915177
27.5635852
26.631729
25.6969548
24.7609436
23.8259952
52.843369
52.0263631
50.3370983
48.5602126
46.9473634
45.4671191
44.1191687
42.8998376
41.7779228
40.7219239
39.7115322
38.7336504
37.7789624
36.8408635
35.9146274
34.9965806
34.0836009
33.1729006
32.261956
31.348508
30.4306182
29.5067586
28.5759246
27.6377553
26.6926479
25.7418405
24.7874409
23.8323783
52.7031708
51.8885507
50.2074203
48.4436159
46.8469291
45.3848145
44.0561298
42.8564324
41.7539133
40.7166484
39.724045
38.7628183
37.8235209
36.899438
35.9857278
35.0785784
34.1746915
33.2710582
32.3648852
31.4536066
30.534953
29.60707
28.6686749
27.719228
26.7591095
25.789764
24.8137791
23.834857
52.5888978
51.7761905
50.1015903
48.3483644
46.7649534
45.3180399
44.005865
42.8233739
41.7382544
40.7182077
39.7423638
38.7972296
37.8731903
36.9633747
36.0627723
35.1673705
34.2736212
33.378206
32.4779575
31.5698726
30.6511996
29.7195875
28.7732939
27.8114292
26.834221
25.843256
24.841645
23.8340424
52.4965949
51.6854637
50.0162477
48.2717979
46.6995466
45.2656381
43.967864
42.8006936
41.7314084
40.7273941
39.7675308
38.838122
37.9293749
37.0342409
36.147509
35.2649193
34.3826155
33.4968867
32.6040792
31.7006063
30.7830484
29.8483362
28.8940176
27.9185974
26.9219275
25.9056004
24.8732635
23.8307441
52.4230051
51.6132068
49.9485424
48.2115528
46.6488968
45.2263431
43.9413638
42.7880661
41.7334154
40.7445442
39.800124
38.8862791
37.9930506
37.1132133
36.2413454
35.3729194
34.5037237
33.6295815
32.7462402
31.8493688
30.934659
29.9980367
29.035995
28.0460534
27.0273259
25.9811467
24.9116406
23.826063
52.3653776
51.5567342
49.8960061
48.1655014
46.6112715
45.1988257
43.9254175
42.7848885
41.7439687
40.7696022
39.8403023
38.9420548
38.0647649
37.2010575
36.3453157
35.4927434
34.6387508
33.7786423
32.9074653
32.0199749
31.110716
30.174247
29.2055357
28.2005592
27.1571114
26.0757806
24.9609495
23.8215631
52.3213351
51.5137137
49.8564576
48.1317008
46.5850082
45.1817151
43.9189368
42.7903308
41.7624652
40.8021608
39.8878321
39.0053775
38.1446248
37.2980934
36.4600129
35.6253483
34.7891496
33.9461827
33.0907185
32.2164349
31.3164453
30.383497
29.4104047
28.3907922
27.3202061
26.1976084
25.0270929
23.8194907
52.2887817
51.4820801
49.8279355
48.1083533
46.5685028
45.1736104
43.9207183
42.8033698
41.7880384
40.8414867
39.9420963
39.0757524
38.2322687
37.4041302
36.5854886
35.7711501
34.955868
34.133903
33.2987249
32.4428095
31.5575542
30.6333836
29.6601484
28.6279681
27.5286802
26.3580455
25.1186045
23.8229649
52.2658395
51.4599759
49.8086503
48.093777
46.5602004
45.1730875
43.9294619
42.8228134
41.8195804
40.8865405
40.0021126
39.1522443
38.3268157
37.5183837
36.7211408
35.9298613
35.1391318
34.3428249
33.5336776
32.7029259
31.840026
30.9325451
29.9663814
28.9265782
27.7990492
26.5736648
25.2487247
23.8374357
52.250807
51.4457117
49.7969543
48.0863884
46.5585901
45.1787072
43.9437866
42.8473197
41.8557744
40.9360015
40.0665306
39.2334502
38.4268201
37.6393983
36.8655754
36.1002823
35.3381573
34.5729183
33.7967851
32.9998878
32.1696753
31.2904023
30.342907
29.3050691
28.1535412
26.8678581
25.4371355
23.8724612
52.2421337
51.4377432
49.7913238
48.0846941
46.5622081
45.1890237
43.9622532
42.8754359
41.8951199
40.9882804
40.1336314
39.3174993
38.5302402
37.7649645
37.0164589
36.2800661
35.5507971
34.8226017
34.0876154
33.3352822
32.5513146
31.7165246
30.8057063
29.7870113
28.6226818
27.2735515
25.7083766
23.9301486
52.2384081
51.4346666
49.7903532
48.0872894
46.5696468
45.2026116
43.9833971
42.905625
41.9359557
41.0415482
40.201369
39.4020709
38.6344256
37.8920614
37.1703895
36.4654792
35.7731419
35.0881244
34.4031953
33.7079548
32.9872419
32.2190438
31.3719462
30.4023874
29.2524817
27.8516136
26.1213787
24.0284147
52.238353
51.4352028
49.7927544
48.0928702
46.5795737
45.2180912
44.0057554
42.9362942
41.9765144
41.0938001
40.2674244
39.4844416
38.736149
38.0168523
37.3228243
36.6512106
35.9991354
35.3628838
34.7368965
34.1123199
33.474825
32.8013342
32.0553961
31.1810029
30.0966389
28.6906782
26.81312
24.3450666
52.2408318
51.4381993
49.7973672
48.1002499
46.5907522
45.2341506
44.0279033
42.9658593
42.0149916
41.1429325
40.3292943
39.5615843
38.8317051
38.1347689
37.4681165
36.8303038
36.2203051
35.6367988
35.0772391
34.5363601
34.0035949
33.4585123
32.8629201
32.1472923
31.1941318
29.8103063
27.7483041
24.7555201
52.2448591
51.4426577
49.8031768
48.1083756
46.6020687
45.2495874
44.0485102
42.9928092
42.0496268
41.186845
40.3844197
39.630324
38.9170967
38.2407191
37.5997256
36.9943195
36.4257638
35.8959314
35.4067379
34.9591028
34.5508207
34.1719649
33.7948385
33.3512087
32.6864372
31.432898
28.9736823
23.9313007
52.2496116
51.4477471
49.8093294
48.1163519
46.6125648
45.2633512
44.0663942
43.0157778
42.0787994
41.2235673
40.4303508
39.6875543
38.9883141
38.3294474
37.710667
37.1338614
36.6027402
36.1227905
35.7013716
35.3477786
35.0730056
34.888336
34.8008927
34.8000005
34.8163366
34.5596585
33.1087166
25.6345517
68.508762
60.1148467
54.084415
50.6889081
48.1361352
45.9773105
44.1992486
42.698028
41.3643597
40.1410555
38.9992144
37.9193611
36.8873992
35.8932767
34.9295185
33.9902884
33.0709408
32.1677607
31.277773
30.3985989
29.5283499
28.6655464
27.8090551
26.9580399
26.1119211
25.2703416
24.4331361
23.6003032
60.8026056
57.7051906
54.1207219
51.2127717
48.7379597
46.5479435
44.6716002
43.0681257
41.6541193
40.3707718
39.1845718
38.0723096
37.0162806
36.0036022
35.0250047
34.0735624
33.1439394
32.2319735
31.3343944
30.4486196
29.5726115
28.7047776
27.8438976
26.9890662
26.1396483
25.2952412
24.4556411
23.6208121
57.5829063
56.5089787
53.9883724
51.2885194
48.9228997
46.8172039
44.9391316
43.2915953
41.8351565
40.5192002
39.3077301
38.176107
37.1054634
36.0815157
35.0938887
34.1349597
33.1989426
32.2813677
31.378758
30.4883946
29.6081485
28.7363655
27.8717841
27.0134741
26.1607876
25.3133188
24.4708679
23.6334087
56.0540905
55.4234767
53.4296693
51.0394145
48.8722281
46.9093458
45.1020852
43.4718486
42.0108068
40.6829622
39.456563
38.3096485
37.2251135
36.1891041
35.1910298
34.2229655
33.2788513
32.3539702
31.4446389
30.5479799
29.6617493
28.7842119
27.9140549
27.0503219
26.1923605
25.3397782
24.4924037
23.65025
54.9676395
54.4414602
52.7856612
50.697615
48.7160135
46.8759339
45.1508897
43.5673802
42.1298247
40.8128224
39.5896346
38.4410884
37.3521966
36.3104291
35.3058752
34.3309804
33.3798983
32.4480128
31.5316684
30.6279814
29.7346905
28.8500457
27.9727298
27.1017981
26.2366288
25.3768797
24.522447
23.6734253
54.162059
53.6972962
52.2321939
50.3410435
48.4963211
46.7563789
45.1105389
43.5840027
42.1841335
40.8920217
39.6851795
38.5466544
37.463137
36.4234445
35.4185911
34.4416368
33.4871651
32.5508567
31.6292519
30.7195956
29.8197153
28.9279314
28.0429922
27.1640255
26.2904965
25.4221682
24.5590609
23.7014098
53.5496926
53.119452
51.7575045
49.9923837
48.2535422
46.5988476
45.0239302
43.5532091
42.1946126
40.9327383
39.748143
38.6256535
37.553266
36.5209088
35.5204332
34.5454845
33.5910679
32.6531747
31.728569
30.8146569
29.9093894
29.0111904
28.118909
27.2317825
26.3494038
25.4716875
24.5988305
23.7312669
53.068483
52.6571871
51.3564639
49.6760893
48.0178386
46.4323108
44.9169613
43.4960602
42.1772274
40.9464805
39.7861899
38.6824782
37.6243071
36.6024373
35.60939
34.6393033
33.6875419
32.7503624
31.8247225
30.90817
29.9987657
29.0950309
28.1959153
27.3007746
26.4093477
25.5217299
24.6383358
23.7598505
52.682825
52.2835191
51.0221565
49.3995568
47.8008964
46.2700473
44.8039949
43.426378
42.1440269
40.9432688
39.8074096
38.7234198
37.6809327
36.6712984
35.6875386
34.7241757
33.7768557
32.8420379
31.9168237
30.9988615
30.0862878
29.177694
28.2721117
27.3690056
26.4682645
25.570183
24.6754273
23.7849837
52.3699698
51.9787658
50.7438431
49.1614987
47.6071069
46.1194766
44.6941081
43.3535748
42.1037895
40.930901
39.8185825
38.7542687
37.7280081
36.7315321
35.7582002
34.8028021
33.8611759
32.9299117
32.0061927
31.0877147
30.1726434
29.2596005
28.3476678
27.4363997
26.5258304
25.6164677
24.7092651
23.805566
52.1141646
51.7286377
50.5122576
48.9588909
47.4378938
45.9845029
44.5926042
43.2835937
42.0624763
40.9150061
39.8248731
38.7796868
37.7696995
36.7868501
35.8246887
34.8781547
33.9431843
33.0164172
32.0950462
31.1767484
30.2596584
29.3423732
28.4239803
27.5040919
26.5828753
25.6610642
24.739939
23.8212705
51.9041398
51.5227488
50.3198991
48.7880416
47.2926716
45.8665961
44.5023175
43.2201176
42.0241467
40.8996813
39.8302371
38.8034068
37.8094883
36.8404894