/*--------------------------------*- C++ -*----------------------------------*\
| =========                 |                                                 |
| \\      /  F ield         | foam-extend: Open Source CFD                    |
|  \\    /   O peration     | Version:     4.1                                |
|   \\  /    A nd           | Web:         http://www.foam-extend.org         |
|    \\/     M anipulation  |                                                 |
\*---------------------------------------------------------------------------*/
FoamFile
{
    version     2.0;
    format      ascii;
    class       surfaceScalarField;
    location    "0.55";
    object      phi;
}
// * * * * * * * * * * * * * * * * * * * * * * * * * * * * * * * * * * * * * //

dimensions      [0 3 -1 0 0 0 0];

internalField   nonuniform List<scalar> 
102656
(
0.000395261001
5.30266561e-05
5.17123431e-05
0.000281609486
5.8261307e-05
5.53902067e-05
0.000200387973
4.23600595e-05
3.88614525e-05
0.000148889594
2.74480495e-05
2.4050329e-05
0.000117042259
1.73741952e-05
1.44731388e-05
9.68249458e-05
1.12261256e-05
8.99118655e-06
8.35599202e-05
7.39800983e-06
5.8670152e-06
7.46486785e-05
4.89511889e-06
4.01612242e-06
6.84797218e-05
3.24923762e-06
2.91971898e-06
6.40374945e-05
2.17019676e-06
2.27203054e-06
6.07116221e-05
1.45244723e-06
1.87342537e-06
5.81376075e-05
9.65032109e-07
1.60898297e-06
5.60914307e-05
6.28128528e-07
1.41804894e-06
5.44311974e-05
3.91527504e-07
1.26870662e-06
5.3064044e-05
2.22988748e-07
1.1441656e-06
5.19264463e-05
1.0181451e-07
1.03578428e-06
5.09726716e-05
1.46566954e-08
9.39119199e-07
5.01683402e-05
-4.73660899e-08
8.51698672e-07
4.94865749e-05
-9.02537664e-08
7.72020332e-07
4.89054594e-05
-1.17982569e-07
6.99099313e-07
4.84065882e-05
-1.33319999e-07
6.32192351e-07
4.79741972e-05
-1.38321826e-07
5.70713986e-07
4.75945847e-05
-1.34595975e-07
5.1420962e-07
4.725572e-05
-1.23462976e-07
4.62328729e-07
4.69469975e-05
-1.06085152e-07
4.14808564e-07
4.66590902e-05
-8.35526369e-08
3.71460795e-07
4.63838666e-05
-5.69331039e-08
3.3215749e-07
-2.7292412e-08
2.96816811e-07
4.61143429e-05
0.000461998925
2.77115661e-05
6.33161637e-05
0.000392853454
5.22457922e-05
7.51609842e-05
0.00032388655
5.0198071e-05
6.11288918e-05
0.000266758986
4.04823421e-05
4.40932698e-05
0.000223839129
3.04900453e-05
2.98040061e-05
0.000193124212
2.23549802e-05
1.9586061e-05
0.000171286703
1.62956987e-05
1.29398195e-05
0.000155543422
1.18576377e-05
8.78076176e-06
0.000143957393
8.61478158e-06
6.22048497e-06
0.000135217021
6.25932599e-06
4.65124274e-06
0.0001284513
4.54915977e-06
3.66900947e-06
0.00012309092
3.29951637e-06
3.02589714e-06
0.00011876047
2.37754645e-06
2.58103349e-06
0.000115206916
1.68962758e-06
2.25545545e-06
0.000112255411
1.17044349e-06
2.0040521e-06
0.000109781516
7.75027318e-07
1.80068458e-06
0.000107693643
4.72607753e-07
1.62992391e-06
0.000105921818
2.42078957e-07
1.48238259e-06
0.000104410675
6.88029552e-08
1.35208783e-06
0.000103115325
-5.76359007e-08
1.23500596e-06
0.00010199851
-1.44809939e-07
1.12830701e-06
0.000101028541
-1.98342639e-07
1.02999199e-06
0.000100177945
-2.22650157e-07
9.38651321e-07
9.94226327e-05
-2.21433769e-07
8.5328531e-07
9.87413399e-05
-1.97993295e-07
7.73202463e-07
9.811528e-05
-1.55446307e-07
6.97954978e-07
9.75279256e-05
-9.68682439e-08
6.27290912e-07
-2.53658771e-08
5.61113319e-07
9.69648869e-05
0.000447769688
1.52547279e-05
6.46871494e-05
0.000388238264
3.58422742e-05
7.59349407e-05
0.00033558096
4.06676707e-05
6.21877027e-05
0.000291761024
3.76330689e-05
4.66692087e-05
0.000257077963
3.18676724e-05
3.33054329e-05
0.000230707496
2.56785389e-05
2.30469068e-05
0.00021091202
2.01543921e-05
1.59367821e-05
0.000195900549
1.56026747e-05
1.12664336e-05
0.000184286582
1.1975032e-05
8.2537174e-06
0.000175099832
9.13535349e-06
6.31072274e-06
0.000167683437
6.93485272e-06
5.03070293e-06
0.000161595919
5.23514479e-06
4.15188971e-06
0.000156534798
3.91988268e-06
3.51878612e-06
0.000152285822
2.89691312e-06
3.04169178e-06
0.00014869223
2.09604267e-06
2.66799415e-06
0.000145635841
1.46547948e-06
2.36593931e-06
0.000143024957
9.67858233e-07
2.11563453e-06
0.000140786534
5.76533869e-07
1.90397047e-06
0.000138860987
2.72525783e-07
1.7218252e-06
0.000137198569
4.22050043e-08
1.56257957e-06
0.00013575691
-1.2443484e-07
1.42128467e-06
0.000134499409
-2.35006017e-07
1.2941664e-06
0.000133393976
-2.95584028e-07
1.17836799e-06
0.00013241215
-3.11350483e-07
1.07174416e-06
0.000131528526
-2.87074643e-07
9.72707116e-07
0.000130720401
-2.27437622e-07
8.80117512e-07
0.000129967572
-1.37238206e-07
7.93199787e-07
-2.1503619e-08
7.11470221e-07
0.00012925224
0.000440472547
9.9591636e-06
6.48230167e-05
0.000375873926
2.46435803e-05
7.57973139e-05
0.000324700759
3.07171092e-05
6.1123727e-05
0.000286197335
3.08576717e-05
4.52788197e-05
0.000257839619
2.8110757e-05
3.21146312e-05
0.000237174016
2.41838077e-05
2.21603335e-05
0.000221931084
2.00753026e-05
1.53220207e-05
0.00021034186
1.63093193e-05
1.088258e-05
0.000201200907
1.30641645e-05
8.05182002e-06
0.000193742312
1.0351874e-05
6.2420753e-06
0.000187496909
8.12358178e-06
5.05667505e-06
0.000182179131
6.31053439e-06
4.24238861e-06
0.000177607918
4.84187656e-06
3.64922044e-06
0.000173659011
3.65327311e-06
3.19254785e-06
0.000170239601
2.6904721e-06
2.82498174e-06
0.000167275504
1.91003618e-06
2.51954139e-06
0.000164704646
1.27847929e-06
2.26023828e-06
0.000162473644
7.70658011e-07
2.03687966e-06
0.000160535836
3.6798931e-07
1.84234564e-06
0.000158849977
5.68097133e-08
1.67125573e-06
0.00015737925
-1.73040801e-07
1.51933363e-06
0.000156090536
-3.29379809e-07
1.38308937e-06
0.00015495382
-4.185464e-07
1.25967911e-06
0.000153941766
-4.46094396e-07
1.14679947e-06
0.000153029424
-4.17351443e-07
1.0426192e-06
0.000152194078
-3.37813271e-07
9.45722849e-07
0.000151415183
-2.13401194e-07
8.55058499e-07
-5.05980578e-08
7.69886305e-07
0.000150674392
0.000437878102
7.06280256e-06
6.50182579e-05
0.000368456902
1.77998261e-05
7.62649532e-05
0.000314729952
2.34041505e-05
6.10399087e-05
0.000276413718
2.47887533e-05
4.4385151e-05
0.000250112748
2.3694183e-05
3.07175439e-05
0.000232368234
2.13278886e-05
2.06004326e-05
0.000220183176
1.84550996e-05
1.38052607e-05
0.000211416267
1.55604018e-05
9.51582667e-06
0.000204717765
1.28860538e-05
6.8766127e-06
0.000199291691
1.05189407e-05
5.25900736e-06
0.000194694814
8.47251443e-06
4.24794527e-06
0.000190692561
6.72839853e-06
3.58438955e-06
0.000187162219
5.2549429e-06
3.11727675e-06
0.000184035442
4.01687762e-06
2.76317371e-06
0.000181268043
2.9805596e-06
2.47731219e-06
0.000178825568
2.11652576e-06
2.23598617e-06
0.000176677102
1.40039538e-06
2.02655021e-06
0.000174793055
8.12805721e-07
1.84190011e-06
0.000173144624
3.38828446e-07
1.67759312e-06
0.000171703827
-3.28335868e-08
1.53044125e-06
0.000170443668
-3.10775434e-07
1.39789453e-06
0.000169338245
-5.01731682e-07
1.27777541e-06
0.000168362773
-6.11276059e-07
1.16820255e-06
0.000167493678
-6.44535798e-07
1.06753691e-06
0.000166708691
-6.06748101e-07
9.74384837e-07
0.000165986968
-5.0368835e-07
8.87597861e-07
0.00016530927
-3.41967942e-07
8.06266144e-07
-1.29191651e-07
7.29704913e-07
0.000164658159
0.000436606189
5.27579776e-06
6.51808156e-05
0.000364323945
1.34337528e-05
7.66483159e-05
0.00030825463
1.82409587e-05
6.12325066e-05
0.000268854126
2.00669342e-05
4.4122322e-05
0.000242611062
1.98821163e-05
3.00551301e-05
0.000225729381
1.8511301e-05
1.96982681e-05
0.0002148601
1.65330355e-05
1.2791346e-05
0.000207592703
1.4347416e-05
8.48038259e-06
0.000202407093
1.2191984e-05
5.87968008e-06
0.000198410953
1.0182595e-05
4.33248576e-06
0.000195113046
8.36617187e-06
3.40425088e-06
0.000192261039
6.75465181e-06
2.82575408e-06
0.000189732915
5.34237387e-06
2.44069398e-06
0.00018747161
4.11549629e-06
2.16268675e-06
0.000185449286
3.0573872e-06
1.945497e-06
0.000183649187
2.15162054e-06
1.76500487e-06
0.000182057252
1.38351727e-06
1.6088133e-06
0.000180658808
7.40798214e-07
1.47045169e-06
0.00017943764
2.13682928e-07
1.3463141e-06
0.000178376074
-2.05379395e-07
1.23411182e-06
0.00017745532
-5.22202908e-07
1.13218206e-06
0.000176655802
-7.41374532e-07
1.03916142e-06
0.000175957561
-8.6688938e-07
9.53855278e-07
0.000175340605
-9.0276858e-07
8.75188952e-07
0.000174785251
-8.53605602e-07
8.02211651e-07
0.000174272484
-7.25023308e-07
7.34102834e-07
0.000173784345
-5.2400781e-07
6.70178885e-07
-2.5908643e-07
6.09895496e-07
0.000173304345
0.000435884385
4.09224758e-06
6.52991645e-05
0.000361911445
1.04680051e-05
7.69386877e-05
0.000304148096
1.45070873e-05
6.14972198e-05
0.000263619703
1.64103721e-05
4.41849543e-05
0.000236885866
1.67263544e-05
2.98895989e-05
0.000220035076
1.59997416e-05
1.93623494e-05
0.000209563962
1.46592883e-05
1.23448615e-05
0.00020291998
1.30221891e-05
7.96920851e-06
0.000198475415
1.12975747e-05
5.33897509e-06
0.000195265669
9.60645648e-06
3.78588531e-06
0.000192753586
8.01246748e-06
2.86578745e-06
0.000190658467
6.54577742e-06
2.30399386e-06
0.000188841925
5.21769534e-06
1.94122082e-06
0.000187239143
4.02931851e-06
1.68896041e-06
0.000185820538
2.97667959e-06
1.49931292e-06
0.00018457144
2.0537889e-06
1.34692979e-06
0.000183482004
1.25439976e-06
1.21855313e-06
0.00018254269
5.7296987e-07
1.10714316e-06
0.000181742509
5.10516912e-09
1.00875828e-06
0.000181068615
-4.52475843e-07
9.20990868e-07
0.000180506347
-8.02095746e-07
8.42160963e-07
0.000180039453
-1.04548009e-06
7.7100002e-07
0.000179650477
-1.18435229e-06
7.06438381e-07
0.000179321162
-1.22099697e-06
6.47544309e-07
0.00017903288
-1.15882373e-06
5.93500479e-07
0.00017876714
-1.00287722e-06
5.43593678e-07
0.000178506149
-7.6022797e-07
4.97211749e-07
-4.40185414e-07
4.53841905e-07
0.000178233406
0.000435448076
3.25341455e-06
6.53907571e-05
0.000360404806
8.34187003e-06
7.71694045e-05
0.000301441866
1.17173259e-05
6.17527007e-05
0.000259978874
1.3525707e-05
4.43476574e-05
0.000232686065
1.40947396e-05
2.99244236e-05
0.000215610711
1.37796707e-05
1.92954252e-05
0.000205169881
1.2890124e-05
1.22099945e-05
0.000198732102
1.16704218e-05
7.78954666e-06
0.000194605201
1.02946101e-05
5.12986647e-06
0.000191778731
8.8758914e-06
3.55703477e-06
0.000189685034
7.48337656e-06
2.62278822e-06
0.000188022982
6.15718446e-06
2.05064572e-06
0.000186640282
4.91943831e-06
1.68095717e-06
0.000185462936
3.78156906e-06
1.42509578e-06
0.000184455805
2.74891551e-06
1.23489492e-06
0.000183601369
1.82360345e-06
1.08462161e-06
0.000182888826
1.00635671e-06
9.60585353e-07
0.000182308883
2.97600078e-07
8.55312536e-07
0.000181851501
-3.01981248e-07
7.64468188e-07
0.000181504961
-7.91259277e-07
6.85324191e-07
0.000181255564
-1.16866283e-06
6.15963812e-07
0.00018108775
-1.43259897e-06
5.54932917e-07
0.000180984308
-1.58194472e-06
5.01034635e-07
0.000180926714
-1.61665589e-06
4.53253099e-07
0.000180895602
-1.53842012e-06
4.10708576e-07
0.000180871363
-1.35127261e-06
3.72634353e-07
0.000180834867
-1.06209056e-06
3.38358923e-07
-6.80874822e-07
3.07293048e-07
0.000180768264
0.000435163131
2.62837815e-06
6.54619048e-05
0.00035940694
6.74998277e-06
7.73480782e-05
0.000299591138
9.56812215e-06
6.19650061e-05
0.000257394063
1.12065613e-05
4.45162211e-05
0.000229591529
1.18763103e-05
3.00209637e-05
0.000212227422
1.18109582e-05
1.93328196e-05
0.000201677737
1.12305695e-05
1.22092393e-05
0.000195264007
1.03196133e-05
7.76453868e-06
0.000191252392
9.21804946e-06
5.08817601e-06
0.000188601024
8.02510817e-06
3.50215227e-06
0.000186720856
6.80793441e-06
2.55560995e-06
0.000185296488
5.61036823e-06
1.97118457e-06
0.000184165862
4.46054174e-06
1.58952289e-06
0.000183248255
3.37657886e-06
1.32259661e-06
0.000182504043
2.37043195e-06
1.12269513e-06
0.000181912889
1.45042436e-06
9.6433294e-07
0.000181462381
6.22963388e-07
8.3390102e-07
0.000181142425
-1.06334695e-07
7.23891067e-07
0.000180942612
-7.32059452e-07
6.29891127e-07
0.00018085097
-1.2486364e-06
5.49018341e-07
0.000180853473
-1.65041383e-06
4.79248246e-07
0.000180933895
-1.93203092e-06
4.19009504e-07
0.000181073897
-2.08895938e-06
3.67013059e-07
0.000181253296
-2.11822235e-06
3.22166952e-07
0.000181450564
-2.01920981e-06
2.83522049e-07
0.00018164353
-1.79448939e-06
2.50251278e-07
0.000181810298
-1.45047093e-06
2.21613217e-07
-9.97805655e-07
1.96924152e-07
0.000181930305
0.000434966697
2.14483379e-06
6.5516847e-05
0.000358716381
5.51458636e-06
7.74857134e-05
0.000298283855
7.8659453e-06
6.21347029e-05
0.000255516511
9.30844672e-06
4.46654593e-05
0.000227276911
9.98787824e-06
3.01280324e-05
0.000209623361
1.00610715e-05
1.9403437e-05
0.000198913653
9.68366452e-06
1.22566135e-05
0.000192441854
8.99319238e-06
7.79821976e-06
0.000188446904
8.09977202e-06
5.11322815e-06
0.00018586465
7.08692208e-06
3.52044038e-06
0.000184089956
6.01569125e-06
2.56693689e-06
0.000182796385
4.92938997e-06
1.97454909e-06
0.000181814346
3.85852192e-06
1.58405896e-06
0.000181058015
2.82498439e-06
1.30792517e-06
0.000180484437
1.84510253e-06
1.09890698e-06
0.000180071238
9.31757418e-07
9.31865347e-07
0.000179804866
9.59190919e-08
7.93416084e-07
0.000179674659
-6.5233956e-07
6.76211371e-07
0.000179669862
-1.30313669e-06
5.75874381e-07
0.000179778143
-1.84648311e-06
4.89565081e-07
0.000179984849
-2.27238768e-06
4.15268091e-07
0.000180272633
-2.57122666e-06
3.51412057e-07
0.000180621375
-2.73442049e-06
2.96718399e-07
0.00018100839
-2.75534112e-06
2.50104446e-07
0.000181408927
-2.63037255e-06
2.1062536e-07
0.000181797018
-2.36001283e-06
1.77433184e-07
0.000182146634
-1.94985001e-06
1.49763567e-07
-1.41121176e-06
1.26925305e-07
0.000182433115
0.000434826055
1.75937177e-06
6.55594069e-05
0.000358220726
4.5275784e-06
7.75923382e-05
0.000297332138
6.48566706e-06
6.22688666e-05
0.000254120582
7.73006962e-06
4.47899337e-05
0.000225515143
8.36695108e-06
3.02263665e-05
0.00020759401
8.50425734e-06
1.94779473e-05
0.000196709644
8.25231113e-06
1.23157198e-05
0.000190141274
7.71291199e-06
7.84865061e-06
0.000186110862
6.97144471e-06
5.15873917e-06
0.00018353902
6.0963506e-06
3.56241422e-06
0.000181808722
5.14080832e-06
2.60518054e-06
0.000180584879
4.14504762e-06
2.00818499e-06
0.000179691792
3.13941429e-06
1.6121947e-06
0.000179039474
2.1473606e-06
1.32994187e-06
0.000178582316
1.18777066e-06
1.11448963e-06
0.000178296439
2.76694384e-07
9.40939046e-07
0.000178167612
-5.7135934e-07
7.96105156e-07
0.000178184963
-1.34242691e-06
6.72736027e-07
0.000178337732
-2.02243087e-06
5.66524948e-07
0.000178613476
-2.59694087e-06
4.74713596e-07
0.000178997005
-3.0512574e-06
3.95340606e-07
0.000179469754
-3.37087141e-06
3.26896107e-07
0.000180009489
-3.5423001e-06
2.68144254e-07
0.000180590372
-3.55427063e-06
2.18046807e-07
0.00018118345
-3.39916921e-06
1.75718477e-07
0.000181757658
-3.07459921e-06
1.40379542e-07
0.000182281315
-2.58482717e-06
1.11320154e-07
-1.94182865e-06
8.78684142e-08
0.000182724064
0.000434722004
1.4447539e-06
6.55926145e-05
0.000357853261
3.72072362e-06
7.7675598e-05
0.000296619431
5.34471619e-06
6.23747822e-05
0.000253058433
6.39986219e-06
4.48912055e-05
0.000224148916
6.96587658e-06
3.03105927e-05
0.000205988566
7.11866401e-06
1.95459429e-05
0.000194931109
6.93684348e-06
1.23729249e-05
0.000188248808
6.4954564e-06
7.8997574e-06
0.000184153735
5.85999312e-06
5.20652409e-06
0.000181556677
5.08544524e-06
3.60796334e-06
0.00017983233
4.21673388e-06
2.64842156e-06
0.000178639188
3.28966682e-06
2.04852234e-06
0.000177796829
2.33279532e-06
1.64897783e-06
0.000177211997
1.36952109e-06
1.36267077e-06
0.000176837059
4.19867159e-07
1.14284218e-06
0.000176647124
-4.98132874e-07
9.64761563e-07
0.000176627708
-1.36727005e-06
8.15326416e-07
0.000176768198
-2.17022793e-06
6.87310356e-07
0.000177058268
-2.88899094e-06
5.76490251e-07
0.000177485729
-3.50455186e-06
4.8014975e-07
0.000178035125
-3.99701321e-06
3.96360336e-07
0.000178686737
-4.34614235e-06
3.23658368e-07
0.000179415978
-4.53241849e-06
2.60877329e-07
0.00018019322
-4.53857764e-06
2.07065184e-07
0.000180984215
-4.35159162e-06
1.61427483e-07
0.00018175124
-3.96490226e-06
1.23278356e-07
0.000182455025
-3.38060777e-06
9.19954373e-08
-2.61117364e-06
6.69727459e-08
0.000183057398
0.000434642703
1.18325549e-06
6.56187956e-05
0.000357572712
3.04937637e-06
7.77413399e-05
0.000296071204
4.38728461e-06
6.24589403e-05
0.000252231189
5.26671809e-06
4.49731596e-05
0.000223068069
5.74811065e-06
3.03808863e-05
0.000204696511
5.88548265e-06
1.96047399e-05
0.00019347442
5.73509586e-06
1.24238384e-05
0.000186671712
5.3520779e-06
7.94608673e-06
0.00018249523
4.78614865e-06
5.25032641e-06
0.000179849867
4.08071875e-06
3.65008961e-06
0.00017810497
3.27276895e-06
2.68886155e-06
0.000176914665
2.39310072e-06
2.08687142e-06
0.000176095222
1.4674592e-06
1.6847784e-06
0.000175551136
5.18050927e-07
1.39555565e-06
0.000175233515
-4.35096531e-07
1.17258484e-06
0.000175117105
-1.3729345e-06
9.91211303e-07
0.000175187823
-2.27631471e-06
8.38326354e-07
0.000175435947
-3.12511934e-06
7.06766733e-07
0.000175852217
-3.8975829e-06
5.9232184e-07
0.000176425323
-4.56993769e-06
4.9227978e-07
0.000177140055
-5.11648221e-06
4.04736903e-07
0.000177975833
-5.5101928e-06
3.28272695e-07
0.000178905622
-5.72399036e-06
2.61783372e-07
0.000179895372
-5.73273358e-06
2.04405267e-07
0.00018090424
-5.51591205e-06
1.55453039e-07
0.00018188583
-5.06085823e-06
1.14365977e-07
0.000182790652
-4.36608054e-06
8.06510653e-08
-3.44408293e-06
5.38159015e-08
0.000183569745
0.00043458057
9.62966163e-07
6.56397197e-05
0.000357352531
2.4834277e-06
7.7793989e-05
0.000295638379
3.57484231e-06
6.25265951e-05
0.000251571481
4.29381257e-06
4.50398039e-05
0.00022219473
4.68569199e-06
3.04391702e-05
0.000203636805
4.78883895e-06
1.96545694e-05
0.000192260707
4.64347299e-06
1.24677212e-05
0.000185336528
4.28985083e-06
7.98640579e-06
0.000181068825
3.76522067e-06
5.28863125e-06
0.000178359314
3.1031799e-06
3.68704886e-06
0.000176574215
2.33338378e-06
2.72448413e-06
0.00017536501
1.48144672e-06
2.12085879e-06
0.000174546002
5.69684327e-07
1.7167831e-06
0.000174020482
-3.81753075e-07
1.42532293e-06
0.000173739201
-1.35374896e-06
1.19993387e-06
0.000173677426
-2.3271024e-06
1.0159421e-06
0.000173822331
-3.28151688e-06
8.6029706e-07
0.00017416599
-4.19461591e-06
7.25837741e-07
0.000174701196
-5.04112411e-06
6.08334837e-07
0.000175418528
-5.79233724e-06
5.05067631e-07
0.000176303949
-6.41604467e-06
4.14141353e-07
0.000177336695
-6.87710416e-06
3.34165851e-07
0.000178487489
-7.13888345e-06
2.64098794e-07
0.000179717338
-7.16575495e-06
2.03172454e-07
0.000180977302
-6.9267147e-06
1.50838255e-07
0.000182209719
-6.3999816e-06
1.06706547e-07
0.000183351255
-5.5780892e-06
7.04723059e-08
-4.47254886e-06
4.1817236e-08
0.000184337904
0.000434530582
7.75666674e-07
6.56567182e-05
0.000357175094
2.00206282e-06
7.78368537e-05
0.000295287837
2.88028651e-06
6.25818136e-05
0.000251032672
3.45437345e-06
4.50946052e-05
0.000221473354
3.7572982e-06
3.04877128e-05
0.000202749832
3.81568787e-06
1.96966734e-05
0.000191230124
3.65796612e-06
1.25052148e-05
0.000184185755
3.31314614e-06
8.02107296e-06
0.000179820741
2.80856328e-06
5.32167183e-06
0.000177035399
2.16952226e-06
3.71899918e-06
0.000175194433
1.41899107e-06
2.75535817e-06
0.000173948044
5.77418156e-07
2.15041668e-06
0.00017310968
-3.36728138e-07
1.74477709e-06
0.000172582436
-1.30606154e-06
1.45155162e-06
0.000172317719
-2.31319264e-06
1.22416035e-06
0.000172292295
-3.33966751e-06
1.03798981e-06
0.000172495656
-4.36488165e-06
8.80003474e-07
0.00017292292
-5.36488416e-06
7.43003562e-07
0.000173570344
-6.31127843e-06
6.22730805e-07
0.000174431918
-7.1703537e-06
5.16441495e-07
0.000175496312
-7.90266755e-06
4.22228855e-07
0.000176743885
-8.4633966e-06
3.38720062e-07
0.000178143874
-8.80380897e-06
2.64936156e-07
0.000179652129
-8.87423553e-06
2.00225587e-07
0.000181210012
-8.62881578e-06
1.4421768e-07
0.000182745285
-8.0320173e-06
9.67624731e-08
0.000184175761
-7.06640226e-06
5.7836567e-08
-5.74035998e-06
2.73988832e-08
0.000185416173
0.000434489318
6.15566617e-07
6.56707829e-05
0.000357028406
1.59058629e-06
7.78723895e-05
0.000294996783
2.28423014e-06
6.26276802e-05
0.000250582022
2.7287746e-06
4.51403606e-05
0.000220863988
2.94673646e-06
3.05285966e-05
0.000201991593
2.95559617e-06
1.97324866e-05
0.000190337352
2.77485089e-06
1.25373564e-05
0.000183174705
2.42486033e-06
8.05093293e-06
0.000178708066
1.92498943e-06
5.35021227e-06
0.000175837463
1.29345995e-06
3.74666506e-06
0.000173927154
5.47135929e-07
2.78216357e-06
0.000172627005
-2.98639288e-07
2.17620623e-06
0.000171750534
-1.2296202e-06
1.7693632e-06
0.000171201595
-2.23179007e-06
1.47466695e-06
0.000170933147
-3.29033917e-06
1.24559496e-06
0.000170924478
-4.38857153e-06
1.05757278e-06
0.000171168689
-5.50661084e-06
8.97517593e-07
0.000171665499
-6.61988786e-06
7.58193974e-07
0.000172416509
-7.69757772e-06
6.35288324e-07
0.000173421326
-8.70117302e-06
5.26002622e-07
0.000174673687
-9.58342985e-06
4.28400718e-07
0.000176157336
-1.02881616e-05
3.41115857e-07
0.000177841714
-1.07514185e-05
2.63230946e-07
0.000179677986
-1.09047419e-05
1.94234518e-07
0.000181596323
-1.06811482e-05
1.33995138e-07
0.000183505796
-1.00242025e-05
8.27111567e-08
0.000185298392
-8.89979632e-06
4.07982759e-08
-7.30899443e-06
8.67098444e-09
0.000186858355
0.000434454411
4.7850911e-07
6.56826476e-05
0.000356904159
1.2384296e-06
7.79024089e-05
0.000294749291
1.77259893e-06
6.26665003e-05
0.000250196313
2.10251655e-06
4.51792372e-05
0.000220337758
2.24174531e-06
3.0563547e-05
0.000201329627
2.20041208e-06
1.9763315e-05
0.000189548231
1.99106636e-06
1.25651802e-05
0.000182268947
1.62726597e-06
8.07687827e-06
0.000177697016
1.12184176e-06
5.37507871e-06
0.000174732764
4.86880576e-07
3.77083096e-06
0.000172740595
-2.66398958e-07
2.80570384e-06
0.000171370677
-1.12774748e-06
2.19902596e-06
0.000170437315
-2.08745148e-06
1.79119264e-06
0.000169845798
-3.13554577e-06
1.4952725e-06
0.000169551426
-4.26077517e-06
1.26480818e-06
0.000169537047
-5.44937147e-06
1.07517873e-06
0.000169800753
-6.68358207e-06
9.13264747e-07
0.000170348723
-7.93961277e-06
7.71754252e-07
0.00017119032
-9.18542266e-06
6.46248426e-07
0.000172333771
-1.03784952e-05
5.338707e-07
0.000173781386
-1.14636709e-05
4.3262539e-07
0.000175523965
-1.23718676e-05
3.41127413e-07
0.000177534378
-1.30203471e-05
2.58514977e-07
0.000179760913
-1.33157231e-05
1.84445877e-07
0.000182121663
-1.31610158e-05
1.19116493e-07
0.000184502115
-1.24679001e-05
6.32456575e-08
0.000186758706
-1.1174342e-05
1.79538017e-08
-9.26598447e-06
-1.55958219e-08
0.000188731292
0.000434424204
3.6145467e-07
6.56928509e-05
0.000356796544
9.37851108e-07
7.79282395e-05
0.000294534155
1.33501361e-06
6.26999753e-05
0.000249859026
1.56477644e-06
4.521287e-05
0.000219873823
1.63303117e-06
3.05939176e-05
0.000200740121
1.54388127e-06
1.97902336e-05
0.00018883728
1.30433574e-06
1.25895713e-05
0.000181442377
9.22483697e-07
8.09968528e-06
0.00017676153
4.05706536e-07
5.39698147e-06
0.000173695529
-2.39356431e-07
3.79223807e-06
0.000171609188
-1.00679042e-06
2.82673227e-06
0.000170153373
-1.89140262e-06
2.21946998e-06
0.000169143482
-2.88837937e-06
1.81081831e-06
0.000168486599
-3.99259021e-06
1.51392762e-06
0.000168140985
-5.19746029e-06
1.28229821e-06
0.000168094039
-6.49369865e-06
1.0912733e-06
0.000168350241
-7.86743649e-06
9.27651672e-07
0.000168924202
-9.29759427e-06
7.8402119e-07
0.000169836004
-1.07530917e-05
6.55866491e-07
0.000171106496
-1.21891764e-05
5.4018903e-07
0.000172751535
-1.35435974e-05
4.34886653e-07
0.000174774696
-1.47335458e-05
3.38516643e-07
0.000177157981
-1.56538892e-05
2.50256831e-07
0.000179851076
-1.61787881e-05
1.69969527e-07
0.000182760748
-1.61689958e-05
9.8307276e-08
0.000185743603
-1.54875346e-05
3.67790236e-08
0.000188607159
-1.40255272e-05
-1.23706361e-08
-1.17376619e-05
-4.66799453e-08
0.000191125516
0.000434397542
2.62131487e-07
6.57017822e-05
0.0003567015
6.83052357e-07
7.79508412e-05
0.000294343513
9.63661668e-07
6.27293404e-05
0.000249558489
1.10733933e-06
4.52424619e-05
0.000219457317
1.11347564e-06
3.06207278e-05
0.000200205908
9.81217218e-07
1.98140733e-05
0.000188185938
7.1308078e-07
1.26112246e-05
0.000180675771
3.12696979e-07
8.11995401e-06
0.000175882181
-2.17263467e-07
5.41655968e-06
0.00017270631
-8.75024934e-07
3.81153835e-06
0.000170513414
-1.65961242e-06
2.84571854e-06
0.00016895499
-2.57094067e-06
2.23796173e-06
0.000167847478
-3.6095694e-06
1.82870143e-06
0.000167099865
-4.77601728e-06
1.53103994e-06
0.000166673677
-6.06971346e-06
1.29844066e-06
0.000166561466
-7.48766257e-06
1.10617457e-06
0.00016677524
-9.02215028e-06
9.4093934e-07
0.000167340285
-1.06578242e-05
7.95185413e-07
0.000168290767
-1.23678049e-05
6.64230434e-07
0.000169665033
-1.4108335e-05
5.44891847e-07
0.000171499371
-1.58128285e-05
4.34892839e-07
0.000173818726
-1.73855714e-05
3.32670604e-07
0.000176623802
-1.86963787e-05
2.37412314e-07
0.000179874373
-1.9578593e-05
1.49233242e-07
0.000183470345
-1.98344142e-05
6.94461577e-08
0.000187235044
-1.92530086e-05
7.74534109e-10
0.000190909057
-1.7646851e-05
-5.26892067e-08
-1.49098195e-05
-8.61379e-08
0.000194167352
0.000434373627
1.78787672e-07
6.57097178e-05
0.000356616234
4.69551045e-07
7.79708946e-05
0.000294171947
6.52478847e-07
6.27554712e-05
0.000249286637
7.23779437e-07
4.52688707e-05
0.000219077937
6.77463182e-07
3.06447125e-05
0.000199715068
5.0864742e-07
1.98354391e-05
0.00018758128
2.16235988e-07
1.26306329e-05
0.000179955744
-1.99995049e-07
8.13822785e-06
0.000175045472
-7.4135449e-07
5.43436268e-06
0.000171751694
-1.41031849e-06
3.82907047e-06
0.000169439755
-2.21062245e-06
2.86294889e-06
0.00016776134
-3.14738275e-06
2.25485731e-06
0.000166533545
-4.2269249e-06
1.84514997e-06
0.000165666925
-5.45627664e-06
1.54687904e-06
0.000165126067
-6.84230456e-06
1.31344888e-06
0.000164908702
-8.39033897e-06
1.12004098e-06
0.000165035188
-1.01018501e-05
9.53213549e-07
0.000165543318
-1.19711803e-05
8.05226035e-07
0.000166484824
-1.39804675e-05
6.71156261e-07
0.000167921461
-1.60925172e-05
5.47545016e-07
0.00016991884
-1.82420438e-05
4.31835119e-07
0.000172535695
-2.03246672e-05
3.22240403e-07
0.000175806839
-2.21854208e-05
2.17897611e-07
0.000179718401
-2.36093947e-05
1.19239227e-07
0.000184175604
-2.43201816e-05
2.85639294e-08
0.000188968749
-2.39966542e-05
-4.95003636e-08
0.000193748594
-2.23192736e-05
-1.07423055e-07
-1.90632113e-05
-1.3580851e-07
0.000198037793
0.000434351934
1.10006246e-07
6.5716848e-05
0.000356538903
2.93715957e-07
7.79888672e-05
0.000294015886
3.96532393e-07
6.27789636e-05
0.000249038177
4.08810679e-07
4.52926784e-05
0.000218728977
3.20292963e-07
3.06663713e-05
0.000199259875
1.2302409e-07
1.98547247e-05
0.000187015113
-1.87257828e-07
1.2648256e-05
0.000179274044
-6.13889353e-07
8.15496316e-06
0.000174243451
-1.16136384e-06
5.45060219e-06
0.000170824137
-1.83600356e-06
3.84499885e-06
0.000168380845
-2.64601557e-06
2.87868506e-06
0.000166564728
-3.60164509e-06
2.27037877e-06
0.000165192725
-4.71526552e-06
1.86034346e-06
0.000164176045
-6.00117209e-06
1.56157468e-06
0.000163481382
-7.47504089e-06
1.32739937e-06
0.000163111003
-9.15283359e-06
1.13287348e-06
0.000163093518
-1.10487297e-05
9.64364102e-07
0.000163480096
-1.31716198e-05
8.13861726e-07
0.000164342994
-1.55194573e-05
6.76090505e-07
0.00016577384
-1.80705295e-05
5.4716613e-07
0.000167878542
-2.07708206e-05
4.24074658e-07
0.000170766424
-2.35171793e-05
3.0462894e-07
0.000174530195
-2.61369981e-05
1.87806328e-07
0.000179211049
-2.83646749e-05
7.44257179e-08
0.000184746891
-2.98241762e-05
-3.18478854e-08
0.000190908036
-3.0034401e-05
-1.23399951e-07
0.000197231236
-2.84561944e-05
-1.86280138e-07
-2.46345929e-05
-2.02094646e-07
0.000203004711
0.000434332159
5.45449422e-08
6.57233032e-05
0.000356468396
1.52414329e-07
7.80050653e-05
0.000293873193
1.91540375e-07
6.28001958e-05
0.000248809993
1.57766509e-07
4.53142447e-05
0.000218406538
3.77497643e-08
3.06859986e-05
0.000198836143
-1.78889178e-07
1.98723077e-05
0.000186483335
-4.98914762e-07
1.26644652e-05
0.000178627071
-9.27880589e-07
8.17025479e-06
0.00017347337
-1.47299602e-06
5.46533286e-06
0.000169921838
-2.14396989e-06
3.85949831e-06
0.000167335749
-2.95300672e-06
2.89307977e-06
0.000165364687
-3.91522086e-06
2.2846374e-06
0.000163824134
-5.04906532e-06
1.8743531e-06
0.000162624381
-6.37656911e-06
1.575149e-06
0.000161732445
-7.9233499e-06
1.34024502e-06
0.000161153249
-9.71816172e-06
1.14452366e-06
0.00016092195
-1.17915117e-05
9.74081381e-07
0.000161102493
-1.41726769e-05
8.20513274e-07
0.000161789149
-1.68841175e-05
6.78003583e-07
0.00016310859
-1.99319566e-05
5.41985419e-07
0.000165218984
-2.32898752e-05
4.08660501e-07
0.000168302714
-2.68760223e-05
2.75113244e-07
0.000172545087
-3.05193551e-05
1.39983649e-07
0.000178090145
-3.39144346e-05
4.70004445e-09
0.000184964532
-3.6574059e-05
-1.24505144e-07
0.00019296105
-3.77958713e-05
-2.3504811e-07
0.000201489078
-3.66826194e-05
-3.01605751e-07
-3.2335282e-05
-2.93215678e-07
0.000209482981
0.000434314238
1.11617379e-08
6.57291453e-05
0.000356404199
4.27596541e-08
7.80196942e-05
0.000293742793
3.35779292e-08
6.28193696e-05
0.000248600675
-3.38738274e-08
4.53337585e-05
0.000218109152
-1.74655696e-07
3.07039292e-05
0.000198442646
-4.00855132e-07
1.98884721e-05
0.000185985375
-7.20883787e-07
1.26792396e-05
0.000178015421
-1.14199052e-06
8.18406408e-06
0.000172737334
-1.67356847e-06
5.47865948e-06
0.000169048686
-2.32798536e-06
3.87266322e-06
0.000166310275
-3.12078783e-06
2.90619202e-06
0.000164168784
-4.0713931e-06
2.29766245e-06
0.000162436489
-5.20393799e-06
1.88716761e-06
0.000161020494
-6.54811093e-06
1.58753594e-06
0.000159885278
-8.13997485e-06
1.35184061e-06
0.000159034979
-1.0022582e-05
1.154719e-06
0.000158507529
-1.22459348e-05
9.81873169e-07
0.000158376109
-1.48655553e-05
8.24297539e-07
0.000158755106
-1.79384273e-05
6.7531303e-07
0.000159808241
-2.15142783e-05
5.29186582e-07
0.000161756405
-2.56187161e-05
3.80676612e-07
0.000164879736
-3.02247173e-05
2.25363705e-07
0.000169503469
-3.52039575e-05
6.08686351e-08
0.000175953053
-4.02534887e-05
-1.10530706e-07
0.000184454265
-4.47982409e-05
-2.77030988e-07
0.000194938472
-4.78660663e-05
-4.14014578e-07
0.000206728855
-4.80061818e-05
-4.66823402e-07
-4.34320959e-05
-3.94155964e-07
0.000218219822
0.000434297973