/*--------------------------------*- C++ -*----------------------------------*\
| =========                 |                                                 |
| \\      /  F ield         | foam-extend: Open Source CFD                    |
|  \\    /   O peration     | Version:     4.1                                |
|   \\  /    A nd           | Web:         http://www.foam-extend.org         |
|    \\/     M anipulation  |                                                 |
\*---------------------------------------------------------------------------*/
FoamFile
{
    version     2.0;
    format      ascii;
    class       volScalarField;
    location    "0.55";
    object      rAU;
}
// * * * * * * * * * * * * * * * * * * * * * * * * * * * * * * * * * * * * * //

dimensions      [0 0 1 0 0 0 0];

internalField   nonuniform List<scalar> 
35840
(
0.000714285827
0.000836637745
0.000924548846
0.000999613342
0.00105386504
0.0010904645
0.00111504766
0.00113178874
0.00114332062
0.00115144275
0.00115736368
0.00116183709
0.00116532347
0.00116811035
0.00117038186
0.00117225951
0.00117382698
0.00117507953
0.00117613427
0.00117704216
0.00117782906
0.00117851712
0.00117912562
0.00117967148
0.00118016959
0.00118063303
0.00118107318
0.00118149979
0.00073908384
0.000819497676
0.000880892198
0.000951172967
0.00101612406
0.00106944602
0.0011104693
0.00114131885
0.00116442944
0.0011818598
0.00119522112
0.00120567433
0.00121401474
0.00122078478
0.00122635882
0.00123099927
0.00123489444
0.00123811124
0.00124083553
0.00124307984
0.00124495196
0.00124660451
0.00124807815
0.00124940863
0.00125062748
0.0012517624
0.00125283754
0.00125387364
0.000753175731
0.000833322943
0.000878398486
0.000929314374
0.000978234705
0.00102100089
0.00105596519
0.0010836973
0.00110556851
0.00112291174
0.00113682319
0.00114813547
0.00115745178
0.00116520685
0.00117171851
0.00117722276
0.00118189817
0.00118588296
0.00118928676
0.00119211685
0.00119430908
0.00119621333
0.00119793105
0.00119949923
0.00120095078
0.00120231473
0.00120361633
0.00120487715
0.000760309093
0.000850112944
0.000895623422
0.000941324803
0.000982257117
0.00101676016
0.00104457638
0.00106663178
0.00108423046
0.00109850065
0.00111028243
0.00112016507
0.00112855183
0.00113572378
0.00114188559
0.00114719315
0.0011517696
0.00115571532
0.00115911415
0.00116203754
0.00116414404
0.00116593121
0.00116756724
0.00116908419
0.00117051116
0.00117187412
0.00117319562
0.00117449471
0.000763382681
0.000860199439
0.000909774867
0.000956401253
0.000995497683
0.00102638394
0.00104993414
0.00106781823
0.00108169371
0.00109281928
0.00110203898
0.00110988074
0.00111666303
0.00112258057
0.00112776042
0.00113229361
0.00113625165
0.00113969488
0.00114267653
0.00114520157
0.0011468072
0.00114821912
0.00114953756
0.0011507878
0.0011519936
0.00115317646
0.0011543551
0.00115554491
0.000765074298
0.000866246842
0.00091934833
0.000968015002
0.00100750969
0.00103741288
0.00105911871
0.00107478754
0.0010863971
0.00109538639
0.00110268665
0.00110885358
0.00111419992
0.00111889782
0.0011230446
0.00112670032
0.00112990759
0.00113270141
0.0011351136
0.00113686625
0.0011378348
0.00113874913
0.00113962909
0.00114049507
0.00114136692
0.00114226283
0.00114319846
0.00114418622
0.000766121754
0.000870081676
0.000925796358
0.000976359157
0.00101677734
0.00104668839
0.00106773231
0.00108236044
0.0010927695
0.0011005329
0.00110665637
0.00111173211
0.00111608695
0.00111989432
0.00112324544
0.00112619026
0.00112875962
0.00113097657
0.00113286164
0.00113358858
0.00113401232
0.00113442963
0.00113485902
0.00113531986
0.00113583115
0.00113641034
0.00113707216
0.00113782768
0.000766817089
0.000872664915
0.000930310062
0.000982462844
0.00102385318
0.00105409362
0.00107496183
0.00108910335
0.00109887369
0.00110594639
0.00111138224
0.00111580048
0.00111953937
0.00112277551
0.00112559881
0.00112805526
0.00113017034
0.0011319611
0.00113305372
0.00113302772
0.00113299731
0.00113298817
0.00113302148
0.0011331191
0.00113330237
0.00113359073
0.0011340004
0.00113454308
0.000767310683
0.000874505042
0.000933599962
0.000987055287
0.00102935126
0.00106003267
0.00108094976
0.0010948806
0.00110430083
0.00111096555
0.00111598239
0.00111999384
0.00112334777
0.00112622323
0.00112870882
0.00113084731
0.00113265989
0.00113402165
0.00113402145
0.00113362579
0.00113323969
0.00113288775
0.00113259622
0.00113239192
0.00113230097
0.00113234714
0.00113255021
0.00113292437
0.000767678903
0.00087587495
0.000936081944
0.000990601503
0.00103371014
0.00106486843
0.00108595569
0.0010998371
0.00110907765
0.00111549914
0.00112025096
0.00112399829
0.00112709953
0.00112973717
0.00113199937
0.00113392619
0.00113553482
0.00113585225
0.00113519497
0.00113451669
0.00113384597
0.00113321365
0.00113265241
0.00113219578
0.00113187657
0.00113172492
0.00113176613
0.00113201846
0.000767964027
0.00087693201
0.000938012034
0.00099340636
0.00103723224
0.00106886627
0.00109019081
0.00110412592
0.00111330119
0.00111959117
0.00112418123
0.00112775805
0.00113069138
0.00113316863
0.00113527883
0.00113706031
0.00113778617
0.00113709518
0.00113621249
0.00113529456
0.00113437622
0.00113349523
0.00113269194
0.0011320082
0.00113148553
0.00113116262
0.00113107245
0.00113123923
0.000768191486
0.000877772017
0.000939552637
0.000995672955
0.00104012757
0.00107221721
0.00109381343
0.00110786936
0.00111706037
0.00112330157
0.0011278081
0.00113128589
0.0011341159
0.0011364912
0.00113850267
0.00113954001
0.0011390353
0.00113804057
0.00113695258
0.00113580961
0.00113465302
0.00113352823
0.00113248461
0.00113157427
0.0011308499
0.00113036154
0.0011301527
0.00113025603
0.000768377257
0.000878455496
0.000940809479
0.000997539165
0.00104254466
0.00107506133
0.00109694353
0.00111116331
0.00112042804
0.00112668365
0.00113116931
0.00113460746
0.00113738937
0.00113971381
0.0011411066
0.00114086487
0.00113986449
0.00113869782
0.00113740676
0.00113603473
0.00113462967
0.00113324541
0.00113194189
0.0011307839
0.00112983848
0.00112917087
0.00112883908
0.00112888782
0.000768531746
0.000879022063
0.000941853305
0.00099910041
0.00104459007
0.0010775026
0.00109967304
0.00111408339
0.00112346339
0.00112978228
0.00113429842
0.00113774812
0.00114053175
0.00114235463
0.00114246778
0.00114158943
0.00114045625
0.00113911588
0.00113761305
0.00113599545
0.00113431732
0.00113264157
0.00113104033
0.00112959398
0.00112838811
0.00112750836
0.00112703305
0.00112702428
0.000768661951
0.000879498437
0.00094273258
0.00100042377
0.00104634102
0.00107961866
0.00110207259
0.00111668931
0.00112621431
0.00113263456
0.00113722381
0.00114073
0.00114312095
0.00114371412
0.00114311125
0.00114214666
0.00114087999
0.00113935869
0.00113762841
0.0011357396
0.00113375207
0.00113173796
0.0011297833
0.00112798743
0.00112645986
0.00112531384
0.00112465633
0.00112457499
0.000768772705
0.000879903078
0.000943481168
0.00100155705
0.00104785384
0.00108146755
0.00110419624
0.00111902777
0.00112871889
0.00113527033
0.00113996841
0.0011431803
0.00114443742
0.0011442966
0.00114365935
0.00114261158
0.0011412095
0.00113949765
0.00113751999
0.00113532741
0.00113298355
0.00113056931
0.00112818587
0.00112595533
0.00112401795
0.00112252444
0.00112162264
0.00112143838
0.00076886741
0.000880249001
0.000944123112
0.00100253465
0.00104916977
0.00108309253
0.00110608494
0.00112113453
0.00113100638
0.0011377123
0.00114220138
0.00114441185
0.00114497143
0.00114484914
0.00114418543
0.00114305994
0.0011415224
0.00113961111
0.00113736473
0.00113483098
0.00113207428
0.0011291824
0.00112627202
0.00112349184
0.00112102119
0.00111906176
0.00111782026
0.00111746172
0.00076894851
0.000880545535
0.000944675703
0.00100338149
0.00105031904
0.00108452561
0.00110776914
0.00112303609
0.00113309805
0.00113966513
0.0011433096
0.0011449023
0.00114552952
0.00114543842
0.00114476134
0.00114356902
0.00114190143
0.00113978639
0.00113725224
0.00113433828
0.00113110447
0.00112764124
0.0011240792
0.00112059656
0.0011174214
0.00111482454
0.00111308376
0.00111245913
0.00076901779
0.000880799476
0.000945151507
0.00100411573
0.00105132365
0.00108579007
0.00110927077
0.00112475099
0.001134728
0.00114061879
0.00114375519
0.00114545624
0.00114616744
0.00114612724
0.00114545805
0.00114421898
0.00114243634
0.00114012254
0.0011372893
0.00113395965
0.00113018056
0.00112603722
0.00112166872
0.00111728304
0.00111316697
0.00110968409
0.00110718823
0.00110617951
0.000769076584
0.000881015858
0.000945559754
0.0010047506
0.00105219954
0.00108690249
0.00111060488
0.00112603744
0.00113550552
0.00114101436
0.00114428822
0.00114611596
0.00114693504
0.00114697458
0.0011463456
0.00114509293
0.00114322528
0.00114073373
0.00113760527
0.0011338361
0.0011294472
0.0011245045
0.00111914328
0.00111359544
0.00110821381
0.00110342454
0.00109987462
0.00109824949
0.00076912592
0.000881198504
0.000945907327
0.00100529579
0.00105295811
0.00108787425
0.00111154975
0.00112662838
0.00113584451
0.0011415068
0.0011449365
0.00114691601
0.00114787535
0.00114803428
0.00114749155
0.0011462758
0.00114437441
0.00114175078
0.00113835713
0.00113414882
0.00112910246
0.00112324181
0.00111667425
0.00110963741
0.00110251159
0.00109589729
0.00109076309
0.00108812918
0.00076916663
0.000881350422
0.000946199484
0.00100575849
0.00105360747
0.00108850103
0.00111195577
0.00112690511
0.00113627782
0.00114211023
0.0011457191
0.00114788193
0.00114902254
0.00114935228
0.00114895798
0.00114785125
0.00114599529
0.00114331994
0.00113973223
0.00113512897
0.00112941638
0.00112254162
0.00111454236
0.00110561941
0.00109608138
0.00108690179
0.00107934398
0.00107502249
0.000769199442
0.000881474058
0.000946440408
0.00100611006
0.00105395953
0.00108873594
0.00111216738
0.00112726509
0.00113680816
0.00114283009
0.00114664525
0.00114902832
0.00115039917
0.00115096291
0.00115079644
0.00114989558
0.00114819887
0.00114559875
0.00114194756
0.00113706478
0.00113075374
0.00112283457
0.00111320593
0.00110181551
0.00108914362
0.00107624504
0.00106488207
0.00105764211
0.000769212419
0.000881542104
0.000946560609
0.00100625017
0.00105404886
0.00108888382
0.00111244637
0.00112770284
0.00113743057
0.00114366246
0.00114771284
0.00115035644
0.00115201236
0.00115288333
0.00115304054
0.00115246833
0.00115108418
0.00114874421
0.0011452412
0.00114030171
0.00113359112
0.0011247376
0.0011133087
0.00109900696
0.00108221903
0.00106390779
0.00104631079
0.00103364251
0.000769205758
0.000881543702
0.000946567715
0.00100626713
0.0010541399
0.0010890819
0.0011127825
0.00112820676
0.00113813218
0.00114459324
0.00114890703
0.0011518516
0.00115384967
0.00115510702
0.00115569606
0.00115559818
0.00115471953
0.00115288953
0.00114984756
0.00114522268
0.00113851372
0.00112908488
0.00111583897
0.00109838036
0.0010763616
0.00105031263
0.00102243758
0.000999525294
0.000769197909
0.000881528095
0.000946568558
0.00100631424
0.00105426561
0.00108931837
0.00111316121
0.00112875935
0.00113889214
0.00114559789
0.00115019917
0.00115348114
0.0011558751
0.00115759685
0.00115872967
0.00115926514
0.00115911576
0.00115810679
0.00115595014
0.00115220046
0.00114619386
0.00113670802
0.00112240839
0.00110183501
0.00107332711
0.00103608989
0.000991832412
0.000953321491
0.000769194398
0.000881525466
0.000946588168
0.00100638355
0.00105441487
0.00108957866
0.00111356407
0.00112933768
0.00113968222
0.00114664172
0.00115154684
0.00115519341
0.00115802651
0.00116027958
0.00116205808
0.00116338083
0.00116419225
0.00116435143
0.00116359799
0.00116148828
0.00115724433
0.00114910417
0.00113550756
0.00111344274
0.00107868417
0.00102663983
0.000957336726
0.000902337331
0.000769194319
0.000881532657
0.00094662074
0.00100646604
0.00105457503
0.00108984598
0.00111396944
0.00112991434
0.0011404679
0.00114768129
0.00115289521
0.00115691903
0.00116021603
0.00116304407
0.00116554173
0.00116777277
0.00116974259
0.0011713925
0.00117257086
0.00117297219
0.00117169475
0.00116736209
0.00115811398
0.00114010816
0.00110671416
0.00104811082
0.000958380942
0.000880664836
0.000739802698
0.000821720955
0.000884286965
0.000955196835
0.00102016302
0.00107304219
0.00111337634
0.00114347556
0.00116589215
0.00118273574
0.00119562739
0.00120571913
0.00121379083
0.00122036878
0.00122581286
0.00123037345
0.00123422914
0.00123751177
0.00124032218
0.00124274006
0.00124483052
0.00124664818
0.00124823989
0.00124964645
0.00125090386
0.00125204406
0.00125309539
0.00125408288
0.000752948451
0.000758100892
0.000763153808
0.000796315413
0.000843043209
0.000894037973
0.000942835141
0.000986197103
0.00102313077
0.0010538247
0.00107906065
0.00109980606
0.00111695877
0.00113125748
0.00114328061
0.00115347159
0.00116216848
0.00116963109
0.00117606266
0.00118162581
0.00118645387
0.00119065875
0.00119433647
0.00119757101
0.0012004369
0.00120300101
0.00120532364
0.00120745925
0.000770705946
0.00077088543
0.00075423065
0.000761611831
0.000782823753
0.000811820654
0.000843665898
0.000875073655
0.000904268342
0.000930427
0.00095333798
0.00097316509
0.000990242728
0.00100494473
0.00101762339
0.00102858664
0.00103809337
0.00104635761
0.00105355611
0.00105983607
0.0010653218
0.00107012007
0.00107432423
0.00107801725
0.00108127407
0.00108416311
0.00108674738
0.0010890851
0.000779770867
0.000790744853
0.000774251231
0.000776095252
0.00078781682
0.000805266316
0.000825333453
0.000845959816
0.000865985479
0.000884761603
0.000901959088
0.000917478536
0.000931360632
0.000943714113
0.000954674218
0.000964380918
0.000972967535
0.000980555795
0.000987254772
0.000993161731
0.000998363703
0.00100293923
0.00100695998
0.0010104922
0.00101359785
0.00101633547
0.00101876077
0.00102092684
0.000783420424
0.000802129167
0.000790103244
0.000794029642
0.000805254657
0.000819678025
0.000834856821
0.000849620872
0.000863569464
0.000876578806
0.000888612367
0.000899679111
0.000909811544
0.000919050762
0.000927441576
0.0009350315
0.000941869677
0.000948005706
0.000953488852
0.000958367611
0.000962689536
0.000966501255
0.000969848637
0.000972777056
0.000975331659
0.000977557544
0.000979499814
0.000981203453
0.000785373516
0.000808599673
0.000800135278
0.000806890486
0.000819981787
0.000834971249
0.000849340955
0.000862154117
0.000873380616
0.000883269011
0.000892085104
0.000900043616
0.000907294514
0.000913931447
0.000920009771
0.00092556309
0.00093061434
0.000935182274
0.000939285019
0.000942941903
0.000946174264
0.000949005778
0.000951462598
0.000953573439
0.000955369591
0.000956884859
0.000958155376
0.00095921925
0.000786564851
0.000812609194
0.000806646296
0.000815653954
0.000830619763
0.000846905915
0.000861841097
0.000874486004
0.000884923695
0.000893566994
0.000900851119
0.000907135678
0.00091267866
0.000917645987
0.000922136283
0.000926205058
0.000929882577
0.000933185667
0.000936125107
0.000938710026
0.000940950452
0.000942858709
0.000944450295
0.000945744386
0.000946764133
0.000947536743
0.00094809335
0.00094846862
0.000787348069
0.000815280458
0.000811112907
0.000821857201
0.000838378282
0.000855904596
0.000871656765
0.000884671056
0.00089507559
0.000903360274
0.00091004563
0.00091557046
0.000920257962
0.000924323362
0.000927900102
0.000931066572
0.000933866662
0.000936324032
0.000938451513
0.000940257092
0.000941747679
0.000942931467
0.000943819527
0.000944426885
0.000944773262
0.000944883478
0.000944787525
0.000944520237
0.000787902518
0.000817172193
0.000814329019
0.000826428697
0.000844227522
0.000862839806
0.000879397033
0.000892908557
0.000903529096
0.000911799515
0.000918295979
0.000923507646
0.000927798458
0.000931414256
0.000934510306
0.000937179739
0.000939475696
0.000941426929
0.000943048301
0.000944347708
0.000945330546
0.000946002759
0.000946372991
0.000946454191
0.000946214626
0.000945570947
0.000944921622
0.000944299343
0.00078831592
0.000818576816
0.000816738156
0.000829910801
0.000848767519
0.000868324958
0.000885633691
0.000899669588
0.000910599074
0.000918998745
0.000925487038
0.000930592014
0.000934708811
0.0009381061
0.000940954716
0.000943357626
0.000945373447
0.000947033153
0.000948351522
0.000949334735
0.00094998548
0.000950306569
0.000949633171
0.000948704968
0.000947652069
0.000946402744
0.000945362907
0.000944565692
0.00078863627
0.000819660182
0.000818604577
0.00083263988
0.000852379315
0.00087275976
0.000890759792
0.000905317966
0.00091660032
0.000925205879
0.000931784359
0.000936894729
0.000940957934
0.00094426195
0.000946990793
0.000949255483
0.000951118594
0.000952611934
0.00095374877
0.000954532066
0.000954205885
0.000953238879
0.000951439281
0.000949576425
0.000947851166
0.000946315481
0.000945017934
0.000944001042
0.000788892307
0.000820521905
0.000820092002
0.000834832009
0.000855314303
0.000876412724
0.0008950439
0.000910108979
0.000921765839
0.000930625591
0.000937359781
0.000942551095
0.00094664148
0.00094993531
0.000952628146
0.000954838095
0.000956631035
0.000958038953
0.000958816867
0.000958074164
0.000956321392
0.00095406807
0.000951829527
0.000949670101
0.000947655285
0.000945850057
0.000944316088
0.000943108122
0.000789101923
0.000821224172
0.000821305029
0.000836629708
0.000857743193
0.000879470383
0.000898675844
0.000914225597
0.000926265212
0.000935410795
0.000942348423
0.000947678435
0.000951859411
0.000955209288
0.000957933431
0.000960156024
0.000961945576
0.000962414188
0.000961571607
0.000959261718
0.000956802095
0.000954263207
0.000951718046
0.000949243357
0.000946919187
0.000944826727
0.000943044568
0.00094164366
0.000789276682
0.000821807298
0.000822312592
0.000838129298
0.00085978442
0.000882065193
0.000901793022
0.000917802226
0.000930224457
0.000939676372
0.000946853309
0.000952368595
0.000956693833
0.000960157952
0.000962974483
0.000965272635
0.000965625416
0.000964411238
0.000962144428
0.000959604848
0.000956868617
0.00095401383
0.000951124158
0.000948290442
0.000945610265
0.000943185282
0.000941116254
0.000939496021
0.000789424325
0.00082229827
0.000823161346
0.000839397247
0.000861521545
0.000884292571
0.000904496231
0.000920939017
0.000933738631
0.000943509678
0.000950953304
0.000956692494
0.000961209023
0.000964840873
0.000967576687
0.000968292682
0.00096695037
0.000964905621
0.000962446738
0.000959654379
0.000956608011
0.000953392399
0.0009501021
0.000946843815
0.000943736269
0.000940907123
0.000938486536
0.000936597404
0.000789550167
0.000822715623
0.000823883598
0.000840480259
0.0008630143
0.000886221898
0.000906859932
0.000923710963
0.000936879572
0.000946977116
0.00095470851
0.000960704031
0.000965453831
0.000968734771
0.000969987893
0.000969052971
0.00096743996
0.000965256402
0.000962588999
0.000959516211
0.000956118188
0.000952484528
0.000948720213
0.000944949354
0.000941315981
0.000937980903
0.000935113661
0.000932879069
0.000789657939
0.000823072374
0.00082450215
0.000841411619
0.000864305789
0.000887903897
0.0009089392
0.000926173971
0.000939701041
0.000950128352
0.000958163411
0.000964442519
0.000968658255
0.000970599137
0.00097053199
0.000969588221
0.00096790342
0.000965576345
0.000962685789
0.000959303851
0.000955507433
0.000951387664
0.00094705818
0.00094266129
0.00093837079
0.000934389646
0.000930940575
0.000928234881
0.000789750315
0.000823377841
0.000825033351
0.00084221532
0.000865427311
0.000889375664
0.0009107745
0.000928369135
0.000942242352
0.000952999015
0.000961348904
0.000966992851
0.000970044308
0.000971146539
0.000971135836
0.000970195361
0.000968448455
0.000965981217
0.000962859287
0.000959142819
0.000954899742
0.000950217084
0.000945213003
0.00094004699
0.000934926641
0.000930108004
0.000925876012
0.00092253151
0.000789829245
0.000823638821
0.000825489097
0.000842908816
0.000866401656
0.000890664202
0.000912395154
0.000930325891
0.000944530868
0.000955612675
0.000963295894
0.000967970077
0.000970597077
0.000971815952
0.000971884071
0.000970970667
0.00096918385
0.00096659256
0.000963243325
0.000959176923
0.000954443344
0.000949116537
0.000943311036
0.000937198784
0.000931023144
0.000925105437
0.000919795275
0.00091558704
0.000789896191
0.00082386038
0.000825878185
0.000843504928
0.000867245443
0.000891788991
0.000913821947
0.000932064326
0.000946449018
0.000957019981
0.000963931723
0.000968515204
0.000971307626
0.000972672803
0.000972854945
0.000972007687
0.000970220834
0.000967540861
0.000963988377
0.000959575511
0.000954321702
0.000948273351
0.000941526625
0.000934254183
0.000926731555
0.000919315947
0.000912566899
0.000907135406
0.000789952283
0.000824046409
0.000826207274
0.000844013209
0.000867970832
0.000892763954
0.000915069048
0.00093335542
0.000947390021
0.000957377473
0.000964447444
0.000969229284
0.000972220095
0.000973773103
0.000974119323
0.000973395988
0.000971671776
0.000968966012
0.000965265331
0.000960540952
0.000954766042
0.000947938247
0.000940109214
0.000931427984
0.000922161307
0.000912764077
0.000904011433
0.000896805519
0.000789998435
0.000824200027
0.000826481585
0.000844440969
0.000868586862
0.000893598899
0.000915848161
0.00093391122
0.000947662494
0.000957840143
0.000965123429
0.000970135669
0.000973366845
0.00097516121
0.000975737853
0.000975217812
0.000973647158
0.000971014554
0.000967265262
0.000962315195
0.000956070293
0.000948449407
0.000939420296
0.000929061351
0.000917537186
0.000905510673
0.000893924445
0.00088406806
0.000790028619
0.00082432389
0.000826705447
0.000844793786
0.000868995551
0.000893988691
0.000916103975
0.000934123768
0.000948052582
0.000958441014
0.000965965259
0.000971245144
0.000974766226
0.000976866592
0.000977756195
0.000977542172
0.000976249328
0.000973834381
0.000970195792
0.000965182011
0.000958606983
0.000950269266
0.000939993712
0.000927615585
0.000913330622
0.000897750413
0.000882054606
0.000868031591
0.000790026409
0.000824374565
0.000826804001
0.00084492363
0.000869116985
0.000894030023
0.000916256106
0.00093443008
0.00094855219
0.000959172464
0.00096696662
0.000972554031
0.000976419428
0.000978898965
0.000980198317
0.000980416031
0.000979560932
0.000977561754
0.000974270268
0.000969460738
0.000962832396
0.000954017276
0.000942551593
0.00092801315
0.00091017658
0.000889584844
0.000867671046
0.000846802159
0.00079000647
0.000824350569
0.000826782502
0.000844886672
0.000869129729
0.000894127898
0.000916477842
0.000934816512
0.000949145639
0.000960016887
0.000968108263
0.000974042187
0.000978307022
0.000981242669
0.000983057764
0.000983851313
0.000983627078
0.000982297973
0.000979680479
0.000975480151
0.000969271537
0.000960478042
0.000948110933
0.000931122022
0.00090906897
0.000881887183
0.000850015652
0.000816076259
0.000789993061
0.000824319703
0.000826755021
0.000844885911
0.000869185188
0.000894274226
0.000916753776
0.000935264029
0.000949809803
0.000960946551
0.000969357385
0.000975671499
0.0009803859
0.000983851089
0.000986288089
0.000987809362
0.000988431325
0.000988074605
0.000986549905
0.000983526764
0.000978481827
0.000970426874
0.00095767859
0.000938752473
0.000912055585
0.000875817981
0.000828583236
0.00077601051
0.000789985336
0.000824304996
0.000826750749
0.000844913586
0.000869272536
0.000894454533
0.000917065104
0.000935748689
0.000950514634
0.00096192411
0.000970667913
0.000977385547
0.000982587662
0.00098664259
0.000989794389
0.000992184869
0.000993867008
0.000994805157
0.000994858106
0.000993738249
0.000990900578
0.000984810719
0.000973319358
0.000954508309
0.000924340692
0.000877407679
0.000809308511
0.000743585426
0.000789982318
0.000824303147
0.000826764005
0.000844961123
0.00086937968
0.000894652421
0.000917390187
0.000936242476
0.000951224283
0.000962903993
0.000971982081
0.000979111167
0.00098481968
0.00098950009
0.000993429368
0.000996794477
0.000999710748
0.00100222909
0.00100432878
0.00100588954
0.00100638505
0.00100396757
0.000997287881
0.000983668889
0.000957615576
0.000909829334
0.000830973482
0.000762993152
0.000754520268
0.000837737147
0.000885277496
0.000937747078
0.000987162411
0.00102956001
0.00106360572
0.00109017912
0.0011108724
0.00112713559
0.00114011225
0.0011506457
0.00115933218
0.00116659202
0.00117272662
0.00117795618
0.00118244507
0.0011863193
0.00118967825
0.00119260242
0.00119515877
0.00119740423
0.00119938816
0.00120115403
0.0012027405
0.00120418219
0.00120551014
0.00120675206
0.000771501467
0.000773525902
0.000758521243
0.000767402201
0.000789782134
0.000819506542
0.000851606077
0.000882854498
0.000911598436
0.00093714495
0.000959388101
0.000978564537
0.000995051332
0.00100924235
0.00102149551
0.00103211645
0.00104135802
0.00104942694
0.00105649273
0.00106269598
0.00106815519
0.0010729721
0.00107723561
0.00108102467
0.00108441035
0.00108745729
0.00109022454
0.00109276617
0.000791453884
0.000787120859
0.00074790934
0.000730792905
0.00072839615
0.000736330562
0.000750601782
0.000768066347
0.000786668929
0.000805116287
0.000822622863
0.000838781744
0.00085344556
0.00086661916
0.000878386769
0.000888868041
0.000898192119
0.000906483776
0.000913857526
0.00092041617
0.000926251448
0.00093144551
0.000936072567
0.000940200409
0.000943891656
0.0009472047
0.000950194345
0.000952912183
0.000801364622
0.00080845028
0.000768051369
0.00074458315
0.000732835799
0.00072987704
0.000733014784
0.0007399798
0.000749199224
0.000759602859
0.000770436199
0.000781188676
0.000791541325
0.000801310305
0.000810402102
0.000818782585
0.000826454929
0.000833444078
0.000839786652
0.000845524867
0.000850703076
0.000855365956
0.000859557676
0.000863321635
0.000866700475
0.000869736164
0.000872470062
0.000874942901
0.000805282564
0.00082072447
0.000784167688
0.000761967482
0.000749421332
0.000743739957
0.000742670947
0.000744522065
0.000748236746
0.000753150384
0.000758792831
0.00076481917
0.000770980513
0.000777098421
0.000783046267
0.000788737324
0.000794115602
0.000799148026
0.000803818204
0.000808121779
0.000812063057
0.000815652641
0.000818905819
0.000821841519
0.000824481634
0.000826850562
0.000828974832
0.000830882751
0.000807383734
0.000827654564
0.000794253463
0.000774204874
0.000763071959
0.000757940724
0.000756456281
0.000756995069
0.00075867672
0.000761057026
0.000763887093
0.000767010102
0.000770316403
0.000773719045
0.000777143643
0.00078052648
0.000783814652
0.000786965834
0.000789947568
0.000792736304
0.000795316353
0.00079767887
0.000799820979
0.00080174508
0.000803458311
0.000804972093
0.000806301723
0.000807465935
0.000808668159
0.000831929425
0.000800750359
0.000782420218
0.000772687124
0.000768640833
0.00076782841
0.000768565348
0.000769972196
0.000771653066
0.000773440261
0.000775272389
0.000777131782
0.000779009747
0.000780892767
0.000782760766
0.000784589471
0.000786353251
0.000788027477
0.000789590208
0.000791023243
0.000792312694
0.000793449273
0.000794428432
0.000795250403
0.000795920148
0.000796447215
0.000796845454
0.000809514175
0.000834776316
0.000805195204
0.000788190124
0.000779588253
0.000776508997
0.000776461167
0.000777722044
0.000779398951
0.000781101969
0.000782684688
0.000784118894
0.000785425868
0.00078663599
0.000787771332
0.000788841979
0.000789847629
0.000790780582
0.000791628774
0.000792378385
0.000793015834
0.000793529257
0.000793909602
0.000794151446
0.000794253608
0.00079421956
0.000794057629
0.000793780951
0.000810114835
0.000836793536
0.000808390359
0.000792422611
0.000784742512
0.000782480284
0.000783121007
0.000784917799
0.000786971638
0.000788898772
0.000790565548
0.000791960623
0.000793123969
0.000794104445
0.000794941216
0.000795659451
0.000796271572
0.000796780103
0.00079718079
0.000797465424
0.000797624164
0.000797647402
0.00079752728
0.000797258941
0.000796841558
0.00079627913
0.000795580992
0.000794761983
0.000810563374
0.000838291537
0.000810780689
0.000795636392
0.00078871869
0.00078715546
0.000788409091
0.000790710098
0.000793151688
0.000795354799
0.00079719699
0.000798680928
0.000799860851
0.000800798474
0.000801543726
0.000802130382
0.000802577451
0.000802892228
0.000803073635
0.000803115279
0.000803008047
0.00080274226
0.000802309537
0.000801704413
0.000800925761
0.000799977952
0.000798871704
0.000797624479
0.000810911027
0.000839446697
0.000812630785
0.000798149658
0.000791868183
0.000790907606
0.000792708774
0.000795480023
0.000798303704
0.000800801206
0.000802857645
0.000804486782
0.000805754811
0.000806734384
0.000807484408
0.00080804541
0.000808440997
0.000808681117
0.000808765659
0.000808687805
0.000808436937
0.000808001154
0.000807369534
0.0008065342
0.000805492263
0.000803833784
0.000802156133
0.000800507649
0.000811188756
0.00084036511
0.000814104139
0.00080016535
0.000794419381
0.000793980968
0.000796271864
0.000799479776
0.000802674617
0.000805474712
0.000807768863
0.000809578484
0.000810978998
0.000812052042
0.000812864166
0.000813461682
0.000813871969
0.000814106774
0.000814165946
0.00081404101
0.000813718379
0.000813182221
0.000811510014
0.000809706102
0.000807832989
0.000805503119
0.000803336728
0.00080139545
0.000811415944
0.00084111307
0.000815304928
0.000801816492
0.000796525559
0.000796542056
0.000799271705
0.000802883835
0.000806435759
0.00080954072
0.000812088367
0.000814104835
0.000815672223
0.000816879143
0.000817798325
0.000818480816
0.00081895697
0.000819239583
0.000819327612
0.000819140879
0.000817574859
0.000815846462
0.000813064048
0.000810273916
0.000807569986
0.0008050085
0.000802645212
0.000800532715
0.000811605184
0.000841733617
0.00081630165
0.000803192435
0.000798291929
0.000798707251
0.000801831145
0.000805817028
0.000809710405
0.000813118619
0.000815930343
0.000818174401
0.000819937599
0.000821313824
0.000822380694
0.000823192982
0.000823783182
0.000824164317
0.000823202071
0.000821693458
0.000818812275
0.000815823505
0.000812784239
0.000809755687
0.00080680349
0.000803996678
0.000801405275
0.000799096599
0.000811764945
0.000842255607
0.000817140564
0.0008043545
0.000799792061
0.000800559302
0.000804038737
0.000808370387
0.000812589242
0.00081629661
0.000819379348
0.000821867764
0.000823851925
0.000825429904
0.000826683311
0.000827669828
0.000827853211
0.000826929745
0.00082458553
0.00082173229
0.000818672107
0.000815462484
0.000812166342
0.00080885388
0.000805603131
0.000802498807
0.000799629218
0.000797081194
0.000811901061
0.000842698877
0.000817853648
0.000805345594
0.000801078171
0.000802157739
0.000805958991
0.00081061096
0.000815139511
0.000819140373
0.000822498487
0.000825244887
0.000827472286
0.000829282475
0.000830760464
0.000830754441
0.000829654093
0.000827328478
0.000824635143
0.000821627657
0.000818360146
0.000814891735