/*--------------------------------*- C++ -*----------------------------------*\
| =========                 |                                                 |
| \\      /  F ield         | foam-extend: Open Source CFD                    |
|  \\    /   O peration     | Version:     4.1                                |
|   \\  /    A nd           | Web:         http://www.foam-extend.org         |
|    \\/     M anipulation  |                                                 |
\*---------------------------------------------------------------------------*/
FoamFile
{
    version     2.0;
    format      ascii;
    class       volVectorField;
    location    "0.55";
    object      U;
}
// * * * * * * * * * * * * * * * * * * * * * * * * * * * * * * * * * * * * * //

dimensions      [0 1 -1 0 0 0 0];

internalField   nonuniform List<vector> 
35840
(
(3.94086018 0.268528693 0.261844425)
(3.20795304 0.371832039 0.357379778)
(2.43829494 0.266507638 0.249860553)
(1.72034546 0.156945956 0.141978314)
(1.2936652 0.0888182017 0.0772229146)
(1.05217694 0.0517264464 0.0439388148)
(0.893416671 0.0312070559 0.0270966975)
(0.785202496 0.0189958051 0.0180812548)
(0.7116745 0.0115244772 0.0131439296)
(0.660018197 0.00694944442 0.0104213563)
(0.622027714 0.00409507128 0.00881307327)
(0.593037549 0.00226293385 0.00773439312)
(0.570263365 0.00106276777 0.00691399788)
(0.551948702 0.000266962349 0.00623004691)
(0.536959728 -0.000263800779 0.00562783938)
(0.524540453 -0.000615809422 0.00508380149)
(0.51416116 -0.000843006858 0.00458786349)
(0.50542873 -0.000980554359 0.004134593)
(0.49804462 -0.00105181915 0.00372017644)
(0.491768305 -0.0010718458 0.0033414238)
(0.486400246 -0.00105082799 0.00299530885)
(0.481771194 -0.000996289907 0.00267909678)
(0.47773483 -0.000914171004 0.00239050246)
(0.47416317 -0.000809420854 0.00212768877)
(0.470943482 -0.000686467247 0.00188924165)
(0.467976382 -0.000549539153 0.00167412464)
(0.465174746 -0.000402835782 0.00148160968)
(0.462463203 -0.000250561893 0.0013111922)
(4.52124935 0.409953846 0.331399904)
(4.20224523 0.638138465 0.509000161)
(3.63676111 0.543498874 0.407274557)
(2.94289006 0.391294362 0.261505062)
(2.41564401 0.267508722 0.152218153)
(2.06111779 0.181552575 0.085969752)
(1.80858427 0.124047601 0.0502545029)
(1.62431576 0.085085148 0.0317454234)
(1.49024273 0.0584844857 0.0220737491)
(1.39080302 0.0403494442 0.0169169424)
(1.3147581 0.0279051247 0.0139994381)
(1.25508201 0.0192406443 0.0121420542)
(1.2072764 0.0131090922 0.0107961579)
(1.16831119 0.00870016555 0.0097218875)
(1.13610849 0.00548334013 0.00881050416)
(1.10921546 0.00311155251 0.00800987487)
(1.08658109 0.00135702018 0.00729332397)
(1.0674187 6.77339771e-05 0.0066453295)
(1.05111208 -0.000859562907 0.00605495382)
(1.03716722 -0.00149617421 0.00551326703)
(1.02517914 -0.00189298983 0.00501279681)
(1.01480749 -0.00208771979 0.00454762461)
(1.0057587 -0.00210975705 0.00411330926)
(0.997776544 -0.00198352964 0.00370661399)
(0.99063538 -0.00173067608 0.00332533542)
(0.984135688 -0.00137150314 0.0029681765)
(0.978101358 -0.000925884636 0.00263461016)
(0.97237825 -0.000413693406 0.00232471302)
(4.44213348 0.221362328 0.337951927)
(4.08278408 0.436518527 0.518819128)
(3.65713703 0.463120079 0.41808935)
(3.13712266 0.408860349 0.275889078)
(2.719783 0.331896869 0.166457923)
(2.42181975 0.257609442 0.0961047966)
(2.19809959 0.195683125 0.0564749996)
(2.02635227 0.147064211 0.0358938429)
(1.89484978 0.109813139 0.0253550179)
(1.79243452 0.081673649 0.0198172004)
(1.71055482 0.0605716917 0.0166856215)
(1.6437848 0.0447555981 0.014645993)
(1.58857843 0.0328484148 0.0131003338)
(1.54243063 0.0238140856 0.0118098516)
(1.50352167 0.0168963991 0.0106824413)
(1.47050442 0.0115572884 0.00967984237)
(1.4423504 0.00741996086 0.00878310467)
(1.41825015 0.00422198977 0.00797911212)
(1.39754971 0.00177977393 0.00725575743)
(1.37971013 -3.73301357e-05 0.0066012169)
(1.36427463 -0.00132432703 0.00600441836)
(1.35085202 -0.00215273579 0.00545560147)
(1.33910163 -0.00257891827 0.00494672619)
(1.32872242 -0.00265020482 0.00447154682)
(1.31944622 -0.00240918427 0.00402548144)
(1.31103327 -0.00189656912 0.00360544003)
(1.30326951 -0.00115300938 0.00320962268)
(1.29596517 -0.000220073684 0.00283728162)
(4.41370729 0.12337083 0.337929144)
(3.97527218 0.285998044 0.516843304)
(3.52614354 0.346946319 0.410944906)
(3.0482672 0.341769523 0.267056064)
(2.69650516 0.304738297 0.158688293)
(2.46049605 0.25643553 0.0893120447)
(2.2881047 0.208554459 0.0503492086)
(2.15601201 0.166277858 0.0306487179)
(2.05356678 0.130884948 0.0211769179)
(1.97170015 0.102054625 0.0166832231)
(1.903924 0.0789380122 0.014465785)
(1.84654199 0.0605585568 0.0131672171)
(1.79739181 0.0459888283 0.0121781264)
(1.7550179 0.0344284239 0.0112787404)
(1.71835681 0.0252281492 0.0104123763)
(1.68658721 0.0178850749 0.0095768414)
(1.65903736 0.0120221426 0.0087831416)
(1.63513549 0.0073625561 0.00804077563)
(1.61438477 0.00370512643 0.00735358399)
(1.59634843 0.00090351971 0.00672028228)
(1.58063814 -0.0011503237 0.00613630672)
(1.56690594 -0.0025390347 0.00559587482)
(1.55483756 -0.00332888164 0.00509300664)
(1.54414727 -0.00357684586 0.00462225374)
(1.53457433 -0.00333603594 0.00417914167)
(1.52588085 -0.00265944629 0.00376034028)
(1.51785071 -0.0016023678 0.00336366342)
(1.51028948 -0.000223674665 0.00298796212)
(4.40562831 0.0838883458 0.338530173)
(3.9270944 0.205875617 0.518667142)
(3.43458475 0.264642496 0.409525543)
(2.94274178 0.274650446 0.261033593)
(2.60543496 0.257683373 0.150311128)
(2.39688502 0.227987363 0.0805998499)
(2.25546865 0.194237752 0.0421473322)
(2.15329978 0.16151493 0.0232699771)
(2.07740353 0.132100214 0.0147412142)
(2.01793254 0.106644313 0.0111882223)
(1.96848208 0.0850762087 0.00984661052)
(1.92580054 0.0670351317 0.00933201803)
(1.88830322 0.0520586189 0.0090191758)
(1.8551241 0.0396773721 0.00868394337)
(1.82573102 0.0294651263 0.00827729894)
(1.79974626 0.0210608451 0.00781126713)
(1.77685097 0.0141733414 0.00731277484)
(1.75674524 0.00857589123 0.00680650291)
(1.73913753 0.00409614901 0.00630958967)
(1.7237437 0.000604835641 0.00583160236)
(1.71028869 -0.00199580781 0.00537649079)
(1.69850839 -0.00378179054 0.00494505591)
(1.68814926 -0.00481541011 0.00453611191)
(1.67896967 -0.00515233557 0.00414756906)
(1.67074042 -0.00484724701 0.00377724062)
(1.66324589 -0.00395800418 0.00342329637)
(1.65628545 -0.00254845318 0.00308448222)
(1.64967538 -0.00068991159 0.00276019394)
(4.40178199 0.0613581007 0.339164469)
(3.90241954 0.15322509 0.520512988)
(3.38074852 0.204413153 0.410097966)
(2.86922557 0.221086789 0.258747146)
(2.52752086 0.215759285 0.145978724)
(2.32479047 0.198101461 0.0755287971)
(2.19491203 0.174664582 0.0370213167)
(2.10725644 0.149831136 0.018339319)
(2.04674587 0.126039058 0.0101162167)
(2.00217809 0.104355957 0.00691304581)
(1.96646323 0.0851264768 0.00592972465)
(1.93605955 0.0683536509 0.00577172586)
(1.90931906 0.0538808472 0.0058076975)
(1.88545098 0.0414859009 0.00580464652)
(1.86407309 0.0309339321 0.00570603551)
(1.84498568 0.0220059539 0.00551991638)
(1.828047 0.014512452 0.00527226798)
(1.81311807 0.00829773856 0.00498893554)
(1.80004567 0.00323874514 0.00468955556)
(1.78865937 -0.000759455723 0.00438672171)
(1.77877749 -0.00377024785 0.00408780078)
(1.77020705 -0.00585164606 0.0037966764)
(1.76275007 -0.0070530147 0.00351475112)
(1.75620649 -0.00742151304 0.00324206814)
(1.75037755 -0.00700754304 0.0029781074)
(1.74506927 -0.00586911568 0.00272225379)
(1.74009625 -0.00407496359 0.00247407013)
(1.73528558 -0.00170618919 0.00223344345)
(4.39956867 0.0466860166 0.339653214)
(3.88830703 0.117718119 0.521952898)
(3.34832616 0.161234279 0.411268239)
(2.82104887 0.180137384 0.25856486)
(2.47123801 0.181411337 0.144562316)
(2.2667035 0.171531896 0.0734997623)
(2.13927056 0.155441802 0.0347865264)
(2.05695485 0.136709584 0.0160486378)
(2.00347266 0.117577903 0.00782480679)
(1.96668963 0.0992541824 0.00464269246)
(1.93893222 0.0823131312 0.00368823334)
(1.9163044 0.0669825 0.00357062471)
(1.89694302 0.0533046744 0.00366556149)
(1.87994243 0.0412278437 0.00374088697)
(1.86487869 0.0306586595 0.00373625867)
(1.85155889 0.0214923535 0.00365475292)
(1.83987665 0.0136293887 0.00351773001)
(1.82974238 0.00698383549 0.00334727906)
(1.82105641 0.00148646683 0.00316030753)
(1.81369988 -0.00291632257 0.00296774655)
(1.80753626 -0.00626545959 0.00277622925)
(1.80241032 -0.00859315763 0.00258920927)
(1.79815339 -0.0099289371 0.00240796674)
(1.79458658 -0.0103053696 0.00223260314)
(1.79152501 -0.0097634612 0.00206268539)
(1.78878248 -0.0083573526 0.00189762224)
(1.78617682 -0.00615784146 0.0017368888)
(1.78353564 -0.00325426575 0.00158015333)
(4.39821794 0.0366433669 0.340042677)
(3.87962093 0.0929680345 0.523108714)
(3.32763619 0.129541896 0.41249464)
(2.78863439 0.148155217 0.259132015)
(2.43117253 0.152908829 0.144407255)
(2.22293893 0.148079976 0.0729497423)
(2.09469184 0.137276126 0.0341021688)
(2.01368321 0.123273421 0.0153181376)
(1.96293657 0.107979867 0.00705812786)
(1.92974677 0.0925760039 0.00382915139)
(1.90606016 0.077740352 0.00281336146)
(1.88773492 0.0638371827 0.00262802994)
(1.8727404 0.0510436075 0.00266105651)
(1.86005746 0.0394301092 0.00268844074)
(1.84919051 0.0290097384 0.00265282182)
(1.83990673 0.0197679138 0.00255714356)
(1.83208258 0.0116804445 0.00242111185)
(1.82562669 0.00472399945 0.00226451588)
(1.8204459 -0.00111872629 0.00210183071)
(1.8164343 -0.00585804523 0.00194209443)
(1.8134651 -0.00949795649 0.00179037131)
(1.81139258 -0.012039781 0.00164869027)
(1.81005313 -0.0134874861 0.00151725921)
(1.80926801 -0.013853381 0.00139535665)
(1.80884744 -0.0131640143 0.00128184515)
(1.80859595 -0.0114656257 0.00117548312)
(1.80831898 -0.00882841787 0.00107508197)
(1.80783055 -0.0053489213 0.000979574919)
(4.39732439 0.029366055 0.340349239)
(3.87390081 0.074780342 0.524004489)
(3.31375847 0.105384633 0.413534837)
(2.76614096 0.122582287 0.259831704)
(2.40226219 0.128948247 0.144687418)
(2.19012448 0.127294875 0.0729962575)
(2.05997237 0.120197239 0.0340824687)
(1.9786131 0.109763849 0.0152882969)
(1.92863494 0.0975503058 0.00701540365)
(1.89695351 0.0846195104 0.00375522681)
(1.87525056 0.0716607945 0.00268733016)
(1.8592109 0.0591030574 0.00243425017)
(1.84668649 0.0472054587 0.00239349707)
(1.83657726 0.0361221577 0.00234942602)
(1.82833275 0.0259446033 0.00224971638)
(1.82168465 0.016728773 0.0020997404)
(1.8164883 0.00851294744 0.00192001007)
(1.81264095 0.00132896081 0.0017301172)
(1.81004486 -0.00479184867 0.00154391975)
(1.80859106 -0.00981591131 0.00136981951)
(1.80815096 -0.0137076813 0.00121198147)
(1.8085744 -0.0164333608 0.0010716204)
(1.80968922 -0.0179660266 0.000948279268)
(1.81130309 -0.0182920396 0.000840655228)
(1.81320738 -0.0174181823 0.000747042586)
(1.81518304 -0.0153785795 0.000665647692)
(1.8170088 -0.0122402684 0.000594683195)
(1.81847106 -0.00810640186 0.000532349385)
(4.39670005 0.0238481571 0.340586481)
(3.86994397 0.0608750092 0.524690532)
(3.30407766 0.0864549718 0.414368986)
(2.75008078 0.101795227 0.26048318)
(2.38099429 0.108626717 0.14508692)
(2.16524684 0.108825052 0.0732503204)
(2.03288508 0.104215235 0.0342978944)
(1.95047764 0.0963769175 0.0155046246)
(1.9003385 0.0865451573 0.00723170067)
(1.86912418 0.0756294589 0.00395822535)
(1.84832278 0.0642732962 0.00286072105)
(1.83348539 0.0529175314 0.00256386039)
(1.82237252 0.0418607649 0.00247072941)
(1.81382201 0.0313079752 0.00237130915)
(1.8072422 0.0214045839 0.00221721832)
(1.80233873 0.0122597241 0.00201618557)
(1.79895177 0.003962474 0.00179001153)
(1.79697048 -0.00340737427 0.00155888445)
(1.79629349 -0.00977282138 0.00133707084)
(1.79680855 -0.0150563619 0.00113308311)
(1.79838303 -0.0191806686 0.000950917616)
(1.80085856 -0.0220722691 0.000791679018)
(1.80404895 -0.0236674914 0.000654865012)
(1.80774092 -0.0239203811 0.000539137198)
(1.81169753 -0.0228118167 0.000442705395)
(1.81566486 -0.0203587573 0.000363532968)
(1.81938182 -0.0166221128 0.000299522305)
(1.82259326 -0.0117116788 0.000248648504)
(4.39624752 0.0195197448 0.340769399)
(3.86710068 0.049907095 0.525217692)
(3.29709068 0.0712552426 0.415027703)
(2.73829591 0.0846199375 0.26103795)
(2.36502257 0.0912366634 0.145481632)
(2.14610185 0.0923865956 0.073548721)
(2.01154054 0.0893638068 0.0345689806)
(1.92779834 0.0833412548 0.015776306)
(1.87702688 0.0752824994 0.00750502881)
(1.84571235 0.0659412184 0.00422527932)
(1.82520503 0.055887857 0.00311105519)
(1.81095347 0.0455422883 0.00278782832)
(1.80064444 0.0352120052 0.00266169262)
(1.79306482 0.0251271312 0.00252587814)
(1.78758949 0.0154667623 0.00233437605)
(1.78390387 0.00637805069 0.00209637273)
(1.78183755 -0.00200980814 0.00183449513)
(1.78127595 -0.00957557443 0.00156957196)
(1.78211704 -0.0161992961 0.00131638331)
(1.78424881 -0.0217594599 0.00108356662)
(1.787536 -0.0261339446 0.000875296399)
(1.7918121 -0.0292041429 0.000692955761)
(1.79687504 -0.0308623594 0.000536261283)
(1.80248584 -0.0310220456 0.000404023453)
(1.80837129 -0.0296299957 0.000294648901)
(1.81423115 -0.0266791895 0.000206354511)
(1.81975055 -0.0222204001 0.000137246414)
(1.82461714 -0.0163702129 8.53225795e-05)
(4.39590893 0.0160319885 0.340910817)
(3.86498886 0.0410325707 0.525625589)
(3.29189032 0.0587912259 0.415546295)
(2.72941884 0.0702217364 0.261493691)
(2.35277216 0.0762427893 0.145830826)
(2.13111839 0.0777501253 0.0738319104)
(1.99449371 0.0756653686 0.0348313603)
(1.90932436 0.0708551584 0.0160366757)
(1.85767492 0.0640622928 0.00776466467)
(1.82592594 0.055897754 0.00447951652)
(1.80533519 0.0468499399 0.00335356264)
(1.79127709 0.0372994643 0.00301271344)
(1.78138199 0.027542536 0.00286480063)
(1.77439666 0.0178156407 0.00270489352)
(1.76966969 0.00831556611 0.00248825897)
(1.7668715 -0.000785318841 0.00222476145)
(1.76582559 -0.00932700613 0.00193750866)
(1.76641791 -0.0171524297 0.00164777453)
(1.7685505 -0.0241012019 0.00137042911)
(1.77211538 -0.030007063 0.00111419843)
(1.77697797 -0.0346989168 0.000883412546)
(1.7829656 -0.0380058831 0.000679667758)
(1.78985959 -0.0397665919 0.000502963292)
(1.79739121 -0.0398425544 0.000352499718)
(1.80524262 -0.038134866 0.000227117455)
(1.81305431 -0.0346025511 0.000125481219)
(1.82044015 -0.0292799696 4.61161466e-05)
(1.82701014 -0.0222898317 -1.26628536e-05)
(4.39564827 0.0131620878 0.341020989)
(3.86337315 0.0337069676 0.525944633)
(3.28790815 0.04839787 0.415957036)
(2.72255972 0.0580088402 0.261864447)
(2.34316854 0.0632365389 0.146127711)
(2.11917216 0.0647177848 0.0740822453)
(1.98066041 0.0631124235 0.0350654772)
(1.89406589 0.0590588253 0.0162669325)
(1.84141372 0.0531239549 0.00799188874)
(1.80902369 0.0457943779 0.00470077922)
(1.78809572 0.0374771024 0.00356493851)
(1.77395472 0.0285047152 0.00321063295)
(1.76419161 0.0191495301 0.00304681565)
(1.75752485 0.00964109002 0.00286962677)
(1.75328527 0.000181368334 0.00263494361)
(1.75113498 -0.00904269603 0.00235301602)
(1.75089787 -0.0178482394 0.00204727959)
(1.7524667 -0.0260475701 0.00173899585)
(1.75575366 -0.0334420447 0.00144288651)
(1.76066111 -0.0398190981 0.00116765287)
(1.76706099 -0.0449532442 0.000917700735)
(1.77477868 -0.0486119769 0.000694785147)
(1.78358029 -0.0505672872 0.00049917709)
(1.79316418 -0.0506130911 0.000330474827)
(1.80315871 -0.0485880386 0.000188019507)
(1.81312891 -0.0444018708 7.10854296e-05)
(1.82259433 -0.0380618678 -2.1124179e-05)
(1.83105915 -0.0296942484 -8.96510836e-05)
(4.39544226 0.0107629315 0.341107903)
(3.8621026 0.0275679842 0.526197837)
(3.28477531 0.039619659 0.416286215)
(2.71712487 0.0475553274 0.262166942)
(2.33546804 0.05190342 0.146376944)
(2.1094545 0.0531191888 0.0742977392)
(1.969231 0.0516760829 0.0352683843)
(1.88125489 0.0480423927 0.0164653896)
(1.8275402 0.0426461069 0.00818618359)
(1.79437567 0.0358678138 0.00488886755)
(1.77292848 0.0280382707 0.00374422468)
(1.75849378 0.0194388317 0.00337884305)
(1.74863827 0.0103102668 0.0032024427)
(1.74206374 0.000865499079 0.00301176163)
(1.73809262 -0.00869835211 0.00276308915)
(1.7363876 -0.0181887511 0.00246703048)
(1.73678143 -0.0274073921 0.00214696314)
(1.73918208 -0.0361412351 0.00182381906)
(1.74352128 -0.0441554481 0.00151212038)
(1.74972169 -0.0511892765 0.00122045278)
(1.75767158 -0.0569562888 0.000953193734)
(1.7672027 -0.0611505461 0.000712167867)
(1.77807087 -0.0634602152 0.00049783606)
(1.78994064 -0.0635897903 0.000310147639)
(1.80237723 -0.0612909982 0.000149012281)
(1.81485043 -0.0564006563 1.45068529e-05)
(1.82675477 -0.0488810609 -9.31677179e-05)
(1.83744901 -0.0388553441 -0.0001739921)
(4.39527537 0.00873448478 0.341177655)
(3.86107711 0.0223677209 0.526402369)
(3.28224542 0.0321381532 0.416554168)
(2.71270977 0.0385520018 0.262416228)
(2.32914925 0.0420026659 0.146586381)
(2.10138026 0.0428121321 0.0744820779)
(1.95960087 0.0413182576 0.0354430551)
(1.87029962 0.0378615586 0.0166358421)
(1.81549516 0.0327599882 0.00835227861)
(1.78146391 0.0263045399 0.00504903197)
(1.75935754 0.0187562816 0.00389661267)
(1.74445631 0.0103449563 0.00352187683)
(1.73431508 0.00127483221 0.0033350384)
(1.72762937 -0.0082653633 0.00313333782)
(1.72372323 -0.0180917315 0.00287355908)
(1.72226963 -0.0280146091 0.00256628242)
(1.72311994 -0.0378280867 0.00223444974)
(1.7262087 -0.0472997541 0.00189866019)
(1.73150023 -0.0561614889 0.00157318955)
(1.73895208 -0.0641029013 0.00126641704)
(1.74848419 -0.0707693847 0.000982539563)
(1.75994923 -0.0757672062 0.000723285619)
(1.77310372 -0.0786783884 0.000489179073)
(1.78758207 -0.0790879887 0.000280447234)
(1.80287855 -0.0766252395 9.76063209e-05)
(1.81834438 -0.0710175591 -5.82400439e-05)
(1.83320824 -0.0621522474 -0.000185432751)
(1.84662722 -0.0501350481 -0.000282225295)
(4.39513696 0.00700706118 0.341234829)
(3.8602286 0.0179326993 0.526570946)
(3.28015016 0.0257269846 0.416776273)
(2.70903393 0.0307727323 0.262624646)
(2.32384246 0.0333508229 0.146763904)
(2.09452366 0.03368119 0.0746404209)
(1.95131835 0.0320004185 0.0355940138)
(1.86074632 0.0285515765 0.0167831789)
(1.80483841 0.0235646478 0.00849557368)
(1.76986971 0.0172545838 0.00518698341)
(1.74698746 0.00981911099 0.00402779229)
(1.73146723 0.0014368404 0.00364502547)
(1.72086127 -0.00772827668 0.00344943033)
(1.71386811 -0.0175179561 0.00323895733)
(1.70982259 -0.0277695481 0.00297046345)
(1.7084172 -0.0383054705 0.00265407292)
(1.70953316 -0.0489214085 0.00231232391)
(1.71314541 -0.0593734014 0.00196551127)
(1.71926772 -0.0693650741 0.00162755705)
(1.72791273 -0.0785367187 0.00130645116)
(1.73905482 -0.0864587999 0.0010060303)
(1.75259107 -0.0926334664 0.000727712187)
(1.76829926 -0.0965085675 0.000471845899)
(1.78579591 -0.0975091461 0.000238748276)
(1.80450113 -0.0950905774 2.94986485e-05)
(1.82362166 -0.0888145951 -0.000153526712)
(1.84216651 -0.0784432002 -0.00030653884)
(1.85901018 -0.0640358714 -0.000425002602)
(4.39501964 0.00553111476 0.341282834)
(3.85950994 0.0141391544 0.526712933)
(3.2783726 0.0202227756 0.416964003)
(2.70590032 0.0240508603 0.262801832)
(2.31928348 0.025808617 0.146916287)
(2.08857413 0.0256350726 0.0747777176)
(1.94404676 0.0236890145 0.0357256664)
(1.85224932 0.0201376864 0.0169118869)
(1.79522727 0.0151396348 0.0086207387)
(1.75925987 0.00884452198 0.00530743215)
(1.73549599 0.00139188096 0.00414225777)
(1.7192126 -0.00709050204 0.00375262639)
(1.70796622 -0.0164820782 0.00355016764)
(1.70046531 -0.0266611603 0.00333304278)
(1.69606236 -0.0374953271 0.00305771137)
(1.69447827 -0.0488299325 0.00273391969)
(1.69563578 -0.0604738513 0.00238392564)
(1.69956589 -0.0721828496 0.00202759702)
(1.70635264 -0.0836413845 0.00167834812)
(1.71609035 -0.0944447031 0.00134361198)
(1.72884017 -0.104084329 0.001026625)
(1.74457963 -0.11194174 0.00072817396)
(1.7631432 -0.117297146 0.000448035073)
(1.78415661 -0.119362041 0.000186212021)
(1.8069734 -0.117344558 -5.58982668e-05)
(1.83063058 -0.110554073 -0.000274461005)
(1.85384772 -0.0985429112 -0.000462646246)
(1.87509887 -0.0812682691 -0.000611531858)
(4.39491822 0.00427074313 0.341324173)
(3.85888815 0.0108971745 0.526835166)
(3.27683079 0.0155058502 0.417125802)
(2.70316979 0.0182625078 0.262955083)
(2.31528327 0.0192704997 0.147048942)
(2.08330594 0.0186031524 0.0748981343)
(1.93753729 0.0163578995 0.035841726)
(1.84454883 0.0126416845 0.0170255914)
(1.78639988 0.00755397523 0.00873132183)
(1.74937505 0.00118718622 0.00541367899)
(1.72462693 -0.0063735499 0.0042432582)
(1.70743746 -0.0150508569 0.00384838086)
(1.69537095 -0.0247708036 0.00364092824)
(1.68714899 -0.0354554925 0.0034187816)
(1.68214647 -0.0470132378 0.00313817013)
(1.68011995 -0.0593254583 0.00280863341)
(1.6810448 -0.0722296484 0.0024520407)
(1.68502456 -0.0854978679 0.00208774631)
(1.69223754 -0.0988111663 0.0017285411)
(1.70289344 -0.111731452 0.00138112562)
(1.71718426 -0.123673972 0.00104785255)
(1.73522132 -0.133886484 0.000728442412)
(1.75695376 -0.141444877 0.000421484831)
(1.78206877 -0.14527917 0.000125929951)
(1.80988292 -0.144247169 -0.000157155431)
(1.83924722 -0.137272912 -0.000422596744)
(1.86850415 -0.123557322 -0.000659588748)
(1.89555732 -0.102847841 -0.000852166122)
(4.39482907 0.00319938653 0.341360653)
(3.85834018 0.00814012134 0.52694257)
(3.27546743 0.0114869952 0.417267793)
(2.70074445 0.0133144159 0.263089785)
(2.31170775 0.0136560988 0.147165984)
(2.07855732 0.0125314159 0.075004915)
(1.93160975 0.00998845754 0.0359450406)
(1.83745486 0.00608528209 0.0171268909)
(1.77816243 0.000871208364 0.00882957066)
(1.74002074 -0.00561249996 0.00550797235)
(1.71418618 -0.0133316223 0.00433370921)
(1.69594556 -0.0222590684 0.00393520869)
(1.68287021 -0.0323717453 0.0037240667)
(1.67369492 -0.0436437341 0.00349818618)
(1.66781856 -0.0560360547 0.0032137545)
(1.6650375 -0.069482462 0.00288003643)
(1.66538809 -0.0838695246 0.00251846274)
(1.66906197 -0.0990096243 0.00214781822)
(1.67635798 -0.114606259 0.00178020974)
(1.68764133 -0.13021197 0.00142147201)
(1.70329238 -0.145181465 0.00107278932)
(1.72363249 -0.158626503 0.000732308172)
(1.74881646 -0.16938497 0.000396605968)
(1.77868682 -0.176024902 6.24194897e-05)
(1.81259523 -0.17691327 -0.000270780562)
(1.8492177 -0.170386704 -0.000597382209)
(1.88641886 -0.155055806 -0.000901797)
(1.92128691 -0.130250925 -0.00115675005)
(4.39474964 0.00229685827 0.341393544)
(3.85785016 0.00581727761 0.527038616)
(3.27424308 0.00809801321 0.417394309)
(2.6985569 0.009134762 0.263209784)
(2.30846423 0.00890303106 0.147270391)
(2.07421616 0.00737812204 0.0751003934)
(1.92613912 0.00456818598 0.0360374868)
(1.83083513 0.000490328346 0.0172171538)
(1.77037981 -0.00484920736 0.00891695148)
(1.7310625 -0.0114544806 0.0055926465)
(1.70404026 -0.0193390984 0.00441595488)
(1.68460051 -0.028527034 0.00401479305)
(1.67031749 -0.0390505492 0.00380092251)
(1.65993542 -0.0509441228 0.00357243714)
(1.65287414 -0.0642349982 0.0032854357)
(1.64896868 -0.0789287922 0.00294888397)
(1.64831975 -0.0949875307 0.00258376535)
(1.65121872 -0.112297508 0.00220830565)
(1.65810971 -0.130624485 0.00183392262)
(1.66955794 -0.149554381 0.00146552329)
(1.68620346 -0.16841989 0.00110295792)
(1.70868166 -0.186217874 0.000742365634)
(1.73749058 -0.201531037 0.00037740249)
(1.77278817 -0.212481796 1.0183967e-06)
(1.81411151 -0.216764972 -0.000391114028)
(1.86003822 -0.211831179 -0.000795343169)
(1.90787166 -0.195301203 -0.00118951637)
(1.95352646 -0.165687061 -0.00152754392)
(4.39467827 0.00154718847 0.341423702)
(3.85740754 0.00388852439 0.527125659)
(3.27313174 0.00528471358 0.417508302)
(2.69656278 0.00566596791 0.263317699)
(2.30549212 0.00496074564 0.147364171)
(2.0702101 0.0031095661 0.0751859511)
(1.92104529 8.72329552e-05 0.0361196911)
(1.82460614 -0.00412360509 0.0172972739)
(1.76297042 -0.00955236968 0.00899537879)
(1.72242332 -0.0162432127 0.00566966371)
(1.6941158 -0.0242552747 0.00449121971)
(1.6733291 -0.0336639946 0.00408803281)
(1.65763285 -0.0445604772 0.00387219436)
(1.64577207 -0.0570477051 0.0036419421)
(1.6371782 -0.0712333492 0.00335325304)
(1.63171637 -0.087217021 0.00301478291)
(1.62954658 -0.105068412 0.00264707959)
(1.63106261 -0.124792043 0.00226784206)
(1.63687128 -0.146273508 0.00188783319)
(1.64778059 -0.169201675 0.00151110956)
(1.6647718 -0.192962238 0.00113631187)
(1.68892846 -0.21650191 0.000757581167)
(1.72129013 -0.238173216 0.000365225502)
(1.7625907 -0.255590349 -5.30970324e-05)
(1.81283805 -0.265560915 -0.000509230391)
(1.87074199 -0.264223598 -0.00100692892)
(1.93303257 -0.247547575 -0.00151705566)
(1.99398974 -0.212471731 -0.00196568747)
(4.39461394 0.000936865938 0.341451698)
(3.85700603 0.00232030238 0.52720524)
(3.27211781 0.00300157708 0.417611661)
(2.6947358 0.00285894795 0.263415136)
(2.30275668 0.0017854432 0.147448387)
(2.06649843 -0.000305357613 0.0752616492)
(1.91628499 -0.00346654148 0.0361921996)
(1.81872821 -0.00774197313 0.0173689618)
(1.75590256 -0.0131901994 0.00906656579)
(1.71408086 -0.0198911754 0.00573993303)
(1.68440007 -0.0279463276 0.0045601365)
(1.66212626 -0.0374810328 0.00415536148)
(1.64481301 -0.0486469109 0.00393799657)
(1.63119191 -0.0616217845 0.00370638203)
(1.62068916 -0.0766067815 0.0034163315)
(1.6131813 -0.0938181495 0.00307613611)
(1.60886929 -0.113469377 0.002705837)
(1.60823618 -0.135737563 0.00232252183)
(1.61205244 -0.160705701 0.00193629466)
(1.62139803 -0.188269792 0.00155057072)
(1.63767439 -0.217997457 0.00116328566)
(1.66257239 -0.24892545 0.000767628287)
(1.69794476 -0.279291568 0.000352305368)
(1.74550554 -0.306218915 -9.84993485e-05)
(1.80624966 -0.325425243 -0.000603298185)
(1.87955403 -0.331155779 -0.00117977529)
(1.96178666 -0.316604235 -0.00180039357)
(2.04511785 -0.275666133 -0.00239335375)
(4.39455648 0.000453302341 0.341478165)
(3.85664311 0.00108233598 0.527278518)
(3.27119404 0.00120786502 0.417705483)
(2.69306415 0.000668398067 0.263502705)
(2.3002429 -0.000665829391 0.14752278)
(2.06306551 -0.00290108787 0.0753278798)
(1.91184791 -0.00611102915 0.036256661)
(1.81320154 -0.0103587682 0.017433775)
(1.74918965 -0.0157269257 0.0091312387)
(1.70606494 -0.0223256608 0.00580390852)
(1.67494192 -0.0302931228 0.00462296149)
(1.65106017 -0.0398005429 0.00421675108)
(1.63194217 -0.0510584393 0.00399791564)
(1.61628632 -0.0643217954 0.0037648247)
(1.60348829 -0.0798939683 0.00347299672)
(1.59340478 -0.0981269915 0.00313014778)
(1.58624138 -0.119413529 0.00275550708)
(1.58253275 -0.144163131 0.00236516944)
(1.5831829 -0.172751281 0.00196820887)
(1.58953867 -0.205423519 0.00156725762)
(1.60347289 -0.242129115 0.00116011084)
(1.62744133 -0.28225106 0.000741198175)
(1.66444401 -0.32419621 0.000302437435)
(1.71776408 -0.364821656 -0.00016556736)
(1.79030748 -0.398762859 -0.000669358286)
(1.8832724 -0.417768928 -0.00121983355)
(1.99353108 -0.410554306 -0.00175647198)
(2.11107382 -0.364899442 -0.00233572792)
(4.39450688 8.56112361e-05 0.341504424)
(3.85632086 0.000146101221 0.527347011)
(3.27036039 -0.000136943769 0.41779029)
(2.6915461 -0.000951985983 0.263580538)
(2.29795112 -0.00243975876 0.147587963)
(2.05991848 -0.00471801274 0.0753864626)
(1.90775272 -0.0078732914 0.0363145861)
(1.80805973 -0.0119826483 0.0174923053)
(1.74288503 -0.0171465696 0.00918970005)
(1.69845451 -0.0234975754 0.00586170063)
(1.66585117 -0.0312025665 0.00467957568)
(1.64027546 -0.0404709908 0.00427180763)
(1.61920119 -0.0515655317 0.00405118836)
(1.60126928 -0.0648138458 0.00381594181)
(1.58581147 -0.0806217961 0.00352099917)
(1.57261971 -0.0994866497 0.00317302541)
(1.56184602 -0.122006291 0.00278969205)
(1.55400538 -0.148877307 0.00238501696)
(1.55005651 -0.180868872 0.00196564708)
(1.55154354 -0.218749112 0.00153201104)
(1.56078726 -0.263124327 0.00108128604)
(1.58110014 -0.314128089 0.000611301882)
(1.61695365 -0.370867311 0.000124405559)
(1.67395069 -0.430541282 -0.000365485324)
(1.75834445 -0.487175729 -0.00083585428)
(1.87550301 -0.529839834 -0.00127165101)
(2.02571036 -0.54124008 -0.00147852473)
(2.19974443 -0.497475342 -0.00197035651)
(4.3944649 -0.000175611315 0.341530044)
(3.85603985 -0.000517064175 0.527410147)
(3.26961962 -0.00107644256 0.417865947)
(2.69018862 -0.00205235312 0.263649242)
(2.29589552 -0.00358816937 0.147645582)
(2.05708267 -0.00580513235 0.0754386394)
(1.9040397 -0.00879529417 0.0363664152)
(1.80336319 -0.012643644 0.0175446557)
(1.7370764 -0.017460659 0.00924187314)
(1.6913726 -0.023391763 0.00591307884)
(1.65729486 -0.0306218613 0.00472959768)
(1.62999216 -0.0393864775 0.00431996001)
(1.60687174 -0.0499869954 0.00409693755)
(1.58649054 -0.0628095801 0.00385831784)
(1.5680774 -0.0783494069 0.00355795419)
(1.5513029 -0.0972404761 0.00320060661)
(1.53618484 -0.120289609 0.00280092322)
(1.52310755 -0.148510584 0.00236843757)
(1.51293989 -0.183148254 0.00190370275)
(1.50725263 -0.225669544 0.00140008147)
(1.50865109 -0.277672948 0.000849400979)
(1.52123304 -0.340620812 0.000253320564)
(1.55114121 -0.415214528 -0.000356562879)
(1.60709307 -0.500231193 -0.000900734715)
(1.70064788 -0.59030164 -0.00129707039)
(1.84500963 -0.672146195 -0.00152046068)
(2.05125653 -0.720912964 -0.00162987918)
(2.32307807 -0.688021943 -0.00416792538)
(4.39442898 -0.000342247435 0.341552721)
(3.85579749 -0.000939017646 0.527465276)
(3.26897609 -0.00165684694 0.417931608)
(2.68900596 -0.00268781541 0.26370896)
(2.29409957 -0.00417160819 0.147695856)
(2.05459446 -0.0062253544 0.0754843593)
(1.90076407 -0.0089390431 0.0364118752)
(1.79919259 -0.0123985382 0.0175904814)
(1.73187817 -0.0167156619 0.00928736614)
(1.68497772 -0.0220377793 0.00595761132)
(1.64948822 -0.0285541901 0.00477255052)
(1.62049752 -0.0365095804 0.00436064647)
(1.59533092 -0.0462229865 0.00413442374)
(1.57243701 -0.058113128 0.00389085312)
(1.55090283 -0.0727333124 0.00358203357)
(1.530216 -0.09081891 0.00320955398)
(1.51016376 -0.113350513 0.00278265706)
(1.49085181 -0.141635873 0.00230197702)
(1.47283866 -0.177411245 0.00175402354)
(1.45740949 -0.222954147 0.0011114947)
(1.44705224 -0.281175856 0.000340136767)
(1.44623444 -0.35559402 -0.000577205041)
(1.46260515 -0.450041957 -0.00158732259)
(1.50871645 -0.567608371 -0.0024976219)
(1.60431354 -0.707772204 -0.00301131258)
(1.77635335 -0.859732374 -0.00258807494)
(2.06305002 -0.989236799 -0.00203169855)