/*--------------------------------*- C++ -*----------------------------------*\
| =========                 |                                                 |
| \\      /  F ield         | foam-extend: Open Source CFD                    |
|  \\    /   O peration     | Version:     4.1                                |
|   \\  /    A nd           | Web:         http://www.foam-extend.org         |
|    \\/     M anipulation  |                                                 |
\*---------------------------------------------------------------------------*/
FoamFile
{
    version     2.0;
    format      ascii;
    class       volVectorField;
    location    "0.55";
    object      U_0;
}
// * * * * * * * * * * * * * * * * * * * * * * * * * * * * * * * * * * * * * //

dimensions      [0 1 -1 0 0 0 0];

internalField   nonuniform List<vector> 
35840
(
(3.94086018 0.268528691 0.261844422)
(3.20795306 0.371832028 0.357379776)
(2.438295 0.26650761 0.249860559)
(1.72034557 0.156945909 0.141978329)
(1.29366539 0.0888181323 0.0772229397)
(1.05217724 0.0517263517 0.0439388487)
(0.89341712 0.0312069328 0.0270967398)
(0.785203151 0.0189956506 0.0180813055)
(0.711675425 0.0115242884 0.0131439885)
(0.660019462 0.00694921875 0.0104214227)
(0.622029401 0.00409480717 0.00881314585)
(0.593039743 0.00226263072 0.00773446995)
(0.57026616 0.0010624262 0.00691407644)
(0.551952195 0.0002665843 0.00623012413)
(0.536964018 -0.000264211792 0.00562791175)
(0.524545639 -0.000616248058 0.00508386517)
(0.514167335 -0.000843465727 0.00458791446)
(0.505435974 -0.000981025827 0.00413462645)
(0.498053014 -0.00105229429 0.00372018775)
(0.491777908 -0.00107231215 0.00334140867)
(0.486411097 -0.00105127159 0.00299526306)
(0.481783306 -0.000996696262 0.0026790169)
(0.477748188 -0.000914525469 0.00239038602)
(0.474177726 -0.000809708902 0.00212753444)
(0.470959157 -0.000686675174 0.00188904946)
(0.467993061 -0.000549654924 0.00167389614)
(0.465192281 -0.000402849815 0.00148134808)
(0.462481416 -0.000250467731 0.00131090246)
(4.52124936 0.40995383 0.331399908)
(4.20224525 0.638138418 0.509000168)
(3.63676118 0.543498782 0.407274569)
(2.94289019 0.391294209 0.261505084)
(2.41564424 0.267508488 0.152218191)
(2.06111817 0.181552242 0.0859698077)
(1.80858487 0.124047149 0.0502545788)
(1.62431667 0.0850845587 0.0317455221)
(1.49024406 0.0584837422 0.0220738729)
(1.39080488 0.0403485314 0.0169170928)
(1.31476064 0.0279040303 0.0139996156)
(1.25508539 0.0192393596 0.0121422585)
(1.20728076 0.013107613 0.0107963873)
(1.16831673 0.00869849284 0.00972213917)
(1.13611538 0.00548148136 0.008810774)
(1.10922389 0.00310952228 0.00801015744)
(1.08659124 0.00135484111 0.00729361242)
(1.06743075 6.54360454e-05 0.00664561654)
(1.05112618 -0.000861941181 0.00605523137)
(1.03718349 -0.00149858561 0.00551352513)
(1.02519769 -0.00189537939 0.00501302451)
(1.01482837 -0.0020900249 0.00454781132)
(1.00578194 -0.00211191084 0.00411344509)
(0.997802092 -0.0019854631 0.00370668996)
(0.990663139 -0.00173232077 0.00332534388)
(0.984165497 -0.00137279466 0.0029681117)
(0.978132996 -0.000926766202 0.00263446872)
(0.972411437 -0.000414119321 0.0023244943)
(4.44213349 0.221362297 0.337951933)
(4.08278408 0.436518445 0.51881914)
(3.65713704 0.463119927 0.418089364)
(3.13712269 0.408860092 0.275889098)
(2.71978309 0.331896466 0.166457952)
(2.42181995 0.257608847 0.0961048388)
(2.19809998 0.19568229 0.056475059)
(2.02635294 0.147063091 0.035893924)
(1.89485085 0.109811691 0.0253551256)
(1.79243613 0.0816718313 0.0198173389)
(1.71055712 0.0605694697 0.0166857942)
(1.64378797 0.0447529434 0.014646202)
(1.58858267 0.0328453075 0.0131005797)
(1.54243614 0.0238105167 0.0118101335)
(1.50352868 0.0168923727 0.0106827565)
(1.47051315 0.0115528237 0.00968018649)
(1.44236107 0.00741509397 0.00878347135)
(1.418263 0.00421677627 0.00797949348)
(1.39756493 0.00177428984 0.00725614389)
(1.37972793 -4.29898929e-05 0.00660159781)
(1.36429514 -0.00133004771 0.00600478128)
(1.35087535 -0.00215838585 0.00545593264)
(1.33912785 -0.00258435139 0.0049470121)
(1.32875151 -0.00265526521 0.00447177447)
(1.31947811 -0.0024137131 0.00402563875)
(1.31106781 -0.00190041179 0.00360551654)
(1.30330648 -0.00115602344 0.0032096102)
(1.29600429 -0.000222136843 0.00283717486)
(4.41370729 0.123370797 0.337929152)
(3.97527215 0.285997957 0.516843322)
(3.52614347 0.346946152 0.410944928)
(3.04826709 0.341769223 0.267056088)
(2.69650504 0.3047378 0.158688319)
(2.46049596 0.256434765 0.0893120731)
(2.2881047 0.208553347 0.0503492424)
(2.15601221 0.166276324 0.0306487608)
(2.05356729 0.130882917 0.0211769751)
(1.9717011 0.102052025 0.0166832999)
(1.90392556 0.0789347789 0.014465887)
(1.84654434 0.0605546338 0.0131673489)
(1.79739517 0.0459841718 0.0121782915)
(1.75502248 0.034423006 0.0112789409)
(1.71836286 0.0252219616 0.0104126124)
(1.68659498 0.0178781328 0.00957711141)
(1.6590471 0.0120144886 0.00878344184)
(1.63514747 0.00735426331 0.0080411004)
(1.61439923 0.00369630073 0.00735392564)
(1.5963656 0.000894302849 0.00672063103)
(1.58065822 -0.00115975808 0.00613665063)
(1.56692908 -0.00254848362 0.00559620169)
(1.55486387 -0.00333811405 0.00509330321)
(1.54417677 -0.00358561056 0.00462250629)
(1.53460698 -0.00334407189 0.00417933679)
(1.52591653 -0.00266649409 0.00376046567)
(1.51788922 -0.00160818252 0.00336370857)
(1.51033052 -0.000228039113 0.00298791896)
(4.40562831 0.0838883225 0.338530185)
(3.92709434 0.205875557 0.518667169)
(3.43458459 0.26464236 0.409525576)
(2.9427415 0.274650169 0.261033627)
(2.60543458 0.25768287 0.15031116)
(2.39688457 0.227986539 0.0805998801)
(2.25546819 0.194236504 0.0421473596)
(2.15329939 0.161513152 0.0232700022)
(2.07740332 0.132097799 0.0147412388)
(2.01793265 0.106641157 0.0111882503)
(1.96848267 0.0850722124 0.0098466465)
(1.92580179 0.0670302063 0.00933206694)
(1.88830535 0.0520526897 0.00901924238)
(1.85512735 0.0396703838 0.00868403156)
(1.82573564 0.029457049 0.00827741153)
(1.79975253 0.0210516803 0.00781140544)
(1.77685918 0.0141631274 0.00731293848)
(1.75675568 0.00856470873 0.00680668974)
(1.73915049 0.00408412517 0.00630979574)
(1.72375944 0.000592147158 0.00583182024)
(1.71030747 -0.00200893622 0.00537671259)
(1.69853039 -0.00379508599 0.00494527324)
(1.68817464 -0.00482855734 0.00453631442)
(1.67899849 -0.00516498638 0.00414774526)
(1.67077267 -0.0048590331 0.00377737877)
(1.66328146 -0.00396855306 0.00342338513)
(1.65632415 -0.0025574066 0.00308451128)
(1.64971692 -0.000696944944 0.00276015465)
(4.40178197 0.0613581008 0.339164485)
(3.90241944 0.153225091 0.520513025)
(3.38074824 0.204413101 0.410098012)
(2.86922508 0.221086601 0.258747192)
(2.52752017 0.215758858 0.145978769)
(2.3247896 0.198100677 0.0755288394)
(2.19491102 0.174663316 0.0370213544)
(2.10725537 0.149829255 0.0183393494)
(2.04674485 0.126036426 0.0101162382)
(2.00217723 0.104352439 0.0069130586)
(1.96646269 0.0851219387 0.00592973037)
(1.93605953 0.068347969 0.00577172731)
(1.90931977 0.0538739117 0.00580769816)
(1.88545268 0.0414776239 0.00580465003)
(1.86407606 0.0309242548 0.00570604524)
(1.84499021 0.0219948547 0.00551993504)
(1.82805342 0.0144999553 0.00527229738)
(1.81312671 0.00828392208 0.0049889763)
(1.80005687 0.00322374704 0.00468960694)
(1.78867345 -0.000775433655 0.0043867807)
(1.77879473 -0.00378693719 0.00408786448)
(1.77022771 -0.00586870998 0.00379674048)
(1.76277434 -0.00707005626 0.00351480962)
(1.75623449 -0.00743808589 0.00324211396)
(1.75040928 -0.00702316681 0.00297813282)
(1.74510465 -0.00588329666 0.00272225087)
(1.74013508 -0.00408721951 0.00247403119)
(1.73532753 -0.00171607601 0.00223336156)
(4.39956865 0.0466860557 0.339653236)
(3.88830688 0.117718222 0.521952947)
(3.34832575 0.161234371 0.411268299)
(2.82104815 0.180137361 0.25856492)
(2.47123696 0.181411075 0.144562375)
(2.26670215 0.171531255 0.07349982)
(2.13926893 0.155440631 0.0347865815)
(2.056953 0.136707727 0.016048686)
(2.00347069 0.117575196 0.0078248439)
(1.96668766 0.0992504589 0.00464271563)
(1.93893041 0.0823082248 0.00368824108)
(1.91630294 0.0669762505 0.00357061684)
(1.89694214 0.0532969353 0.00366553895)
(1.8799424 0.0412184903 0.00374085143)
(1.86487981 0.0306475987 0.00373621225)
(1.8515615 0.0214795341 0.00365469787)
(1.8398811 0.0136148124 0.00351766846)
(1.82974907 0.00696756778 0.00334721279)
(1.82106572 0.00146864721 0.00316023757)
(1.8137122 -0.00293547448 0.00296767323)
(1.80755194 -0.00628563727 0.00277615363)
(1.8024297 -0.00861396608 0.00258913107)
(1.7981767 -0.00994989866 0.00240788455)
(1.79461399 -0.0103259358 0.00223251478)
(1.79155656 -0.00978303149 0.00206258811)
(1.7888181 -0.00837529998 0.00189751286)
(1.78621629 -0.00617354493 0.00173676384)
(1.78357861 -0.00326714592 0.00158000927)
(4.39821791 0.0366434633 0.340042705)
(3.87962072 0.0929682872 0.523108777)
(3.32763564 0.129542203 0.412494716)
(2.7886334 0.148155448 0.259132091)
(2.43117107 0.152908836 0.144407328)
(2.22293702 0.148079595 0.0729498165)
(2.09468949 0.13727518 0.0341022433)
(2.01368047 0.123271725 0.015318208)
(1.96293352 0.107977228 0.00705818866)
(1.92974354 0.0925722238 0.00382919777)
(1.9060569 0.0777352292 0.00281338956)
(1.88773182 0.0638305195 0.00262803708)
(1.8727377 0.0510352174 0.00266104111)
(1.86005546 0.0394198269 0.00268840215)
(1.84918954 0.0289974309 0.00265276016)
(1.83990715 0.0197534932 0.0025570595)
(1.83208482 0.0116638819 0.00242100653)
(1.82563119 0.00470533967 0.00226439068)
(1.82045312 -0.00113935188 0.00210168675)
(1.81644472 -0.00588040678 0.00194193383)
(1.81347917 -0.00952171388 0.00179019747)
(1.8114107 -0.0120644817 0.00164850586)
(1.81007564 -0.0135125683 0.00151706652)
(1.80929512 -0.0138781851 0.00139515779)
(1.80887925 -0.0131878043 0.00128164225)
(1.8086324 -0.0114876217 0.00117527819)
(1.80835985 -0.00884783691 0.00107487633)
(1.80787541 -0.00536502448 0.00097936922)
(4.39732436 0.0293662297 0.340349273)
(3.87390054 0.0747807987 0.524004568)
(3.31375775 0.105385236 0.413534931)
(2.76613966 0.122582874 0.259831796)
(2.40226027 0.128948644 0.144687507)
(2.19012194 0.127294889 0.0729963485)
(2.0599692 0.120196664 0.0340825632)
(1.97860934 0.10976247 0.0152883909)
(1.92863067 0.0975478972 0.00701549081)
(1.89694883 0.0846158375 0.00375530124)
(1.87524562 0.0716556169 0.0026873865)
(1.85920591 0.0590961352 0.00243428389)
(1.8466817 0.0471965602 0.00239350463)
(1.83657298 0.0361110701 0.0023494048)
(1.82832934 0.0259311457 0.0022496645)
(1.82168254 0.0167128114 0.00209965669)
(1.81648796 0.00849441191 0.00191989402)
(1.81264291 0.00130786416 0.00172996854)
(1.81004968 -0.00481539382 0.00154373945)
(1.80859931 -0.00984167176 0.00136961044)
(1.8081632 -0.0137352886 0.00121174728)
(1.80859116 -0.0164623041 0.00107136531)
(1.80971093 -0.0179956518 0.000948008249)
(1.81133008 -0.0183215595 0.00084037374)
(1.81323981 -0.017446702 0.000746757189)
(1.81522087 -0.0154051354 0.00066536548)
(1.81705179 -0.0122638799 0.000594410359)
(1.81851874 -0.00812613384 0.000532091338)
(4.39670001 0.0238484337 0.340586523)
(3.86994365 0.060875731 0.524690629)
(3.30407676 0.0864559599 0.414369101)
(2.75007914 0.101796285 0.260483291)
(2.38099186 0.108627639 0.145087026)
(2.16524359 0.108825615 0.0732504287)
(2.03288099 0.104215202 0.0342980092)
(1.95047274 0.0963760378 0.0155047423)
(1.90033284 0.086543169 0.00723181478)
(1.86911786 0.0756260869 0.00395832926)
(1.84831593 0.0642682559 0.00286080835)
(1.83347823 0.0529105338 0.00256392524)
(1.8223653 0.041851525 0.00247076682)
(1.81381507 0.0312962228 0.00237131486)
(1.80723593 0.0213900783 0.00221718871)
(1.80233362 0.0122422714 0.00201611761)
(1.79894836 0.00394194824 0.00178990275)
(1.79696939 -0.00343100863 0.00155873285)
(1.79629539 -0.00979948312 0.00133687701)
(1.79681414 -0.0150858269 0.00113284897)
(1.79839302 -0.0192125482 0.000950646462)
(1.80087362 -0.022105994 0.000791375895)
(1.80406969 -0.023702305 0.000654537116)
(1.80776778 -0.0239553475 0.000538794001)
(1.81173079 -0.0228458474 0.000442356927)
(1.81570452 -0.0203906583 0.000363189291)
(1.81942764 -0.0166506515 0.000299194045)
(1.82264467 -0.0117356669 0.000248345234)
(4.39624747 0.0195201494 0.34076945)
(3.86710028 0.0499081494 0.525217809)
(3.29708958 0.0712567171 0.415027839)
(2.7382939 0.0846215953 0.261038081)
(2.36501958 0.0912382637 0.145481755)
(2.14609782 0.0923878835 0.0735488468)
(2.01153544 0.0893645097 0.0345691156)
(1.92779216 0.0833410857 0.0157764472)
(1.87701966 0.0752811559 0.00750516963)
(1.84570417 0.0659383805 0.00422541269)
(1.82519602 0.0558831897 0.00311117396)
(1.81094382 0.0455354458 0.00278792568)
(1.80063442 0.0352026389 0.00266176239)
(1.79305479 0.0251149008 0.00252591464)
(1.78757986 0.0154513514 0.002334374)
(1.78389519 0.00635918726 0.00209632716)
(1.78183044 -0.00203232757 0.00183440144)
(1.78127113 -0.00960185491 0.0015694268)
(1.78211532 -0.0162293097 0.00131618558)
(1.78425105 -0.0217930115 0.00108331687)
(1.78754309 -0.0261706385 0.000874997454)
(1.79182492 -0.0292433549 0.00069261345)
(1.79689438 -0.0309032209 0.00053588423)
(1.80251236 -0.0310634455 0.000403623233)
(1.80840539 -0.0296706065 0.000294239627)
(1.81427295 -0.0267175233 0.000205951948)
(1.8197998 -0.0222548952 0.000136867028)
(1.82467317 -0.0163993458 8.49816843e-05)
(4.39590887 0.0160325498 0.340910879)
(3.86498839 0.0410340315 0.525625728)
(3.29188901 0.058793297 0.415546455)
(2.72941643 0.0702241348 0.261493843)
(2.35276855 0.0762452372 0.145830967)
(2.13111351 0.0777523334 0.0738320541)
(1.9944875 0.0756670281 0.0348315153)
(1.90931678 0.0708559434 0.0160368399)
(1.85766598 0.0640618575 0.0077648315)
(1.8259157 0.0558957295 0.00447967864)
(1.80532375 0.0468459347 0.00335371235)
(1.79126463 0.0372930676 0.00301284313)
(1.78136877 0.0275333241 0.00286490307)
(1.77438304 0.0178031881 0.00270496165)
(1.76965614 0.00829946155 0.00248828569)
(1.76685859 -0.000805449686 0.00222473949)
(1.76581402 -0.00935147123 0.00193743147)
(1.76640853 -0.0171814336 0.00164763705)
(1.76854426 -0.0241348021 0.00137022781)
(1.77211334 -0.0300451228 0.00111393198)
(1.77698126 -0.0347410565 0.000883082748)
(1.78297535 -0.0380514356 0.000679280547)
(1.78987687 -0.0398145705 0.000502529121)
(1.79741693 -0.039891643 0.000352033865)
(1.80527741 -0.0381834422 0.000226639575)
(1.81309844 -0.0346487507 0.000125014058)
(1.82049338 -0.0293217972 4.56837256e-05)
(1.82707174 -0.0223253129 -1.30377998e-05)
(4.3956482 0.0131628364 0.341021061)
(3.8633726 0.033708914 0.525944795)
(3.28790661 0.0484006564 0.415957221)
(2.72255687 0.0580121324 0.26186462)
(2.34316428 0.0632400197 0.14612787)
(2.11916638 0.0647211298 0.0740824067)
(1.980653 0.0631152873 0.0350656518)
(1.89405678 0.0590608419 0.0162671191)
(1.8414029 0.0531247337 0.0079920805)
(1.80901117 0.0457934979 0.00470096881)
(1.78808158 0.0374741108 0.00356511786)
(1.7739391 0.0284991277 0.00321079375)
(1.76417476 0.0191408359 0.00304694961)
(1.75750713 0.00962876129 0.00286972527)
(1.75326715 0.000164876472 0.00263499733)
(1.75111707 -0.00906385591 0.00235301556)
(1.75088097 -0.0178745142 0.00204721616)
(1.75245175 -0.026079304 0.00173886124)
(1.7557418 -0.0334794249 0.00144267401)
(1.76065363 -0.0398620905 0.00116735861)
(1.76705929 -0.0450015237 0.000917325089)
(1.77478423 -0.048664859 0.000694334259)
(1.78359453 -0.0506236711 0.000498663941)
(1.79318837 -0.0506714285 0.000329919994)
(1.80319383 -0.0486463455 0.000187450705)
(1.81317543 -0.0444577983 7.05357657e-05)
(1.82265212 -0.0381128423 -2.16191657e-05)
(1.83112735 -0.0297376794 -9.00575425e-05)
(4.39544218 0.0107638998 0.341107987)
(3.86210196 0.0275704998 0.526198024)
(3.28477352 0.0396232865 0.416286427)
(2.71712157 0.0475596767 0.262167138)
(2.33546309 0.0519081335 0.146377122)
(2.10944775 0.0531239072 0.0742979179)
(1.96922231 0.0516804252 0.0352685778)
(1.88124415 0.0480459539 0.0164655972)
(1.82752735 0.0426484512 0.00818639873)
(1.79436068 0.0358684669 0.00488908282)
(1.77291137 0.0280367142 0.00374443169)
(1.75847466 0.019434501 0.00337903275)
(1.74861735 0.0103025522 0.00320260559)
(1.74204134 0.000853752998 0.00301188716)
(1.73806922 -0.00871480038 0.00276316587)
(1.73636384 -0.0182105698 0.00246704647)
(1.73675815 -0.0274352093 0.00214690581)
(1.73916037 -0.0361755872 0.0018236759)
(1.74350244 -0.0441967117 0.00151188042)
(1.74970728 -0.0512375841 0.00122010848)
(1.75766335 -0.057011432 0.000952743197)
(1.76720254 -0.0612118718 0.000711617451)
(1.7780807 -0.0635265305 0.000497202614)
(1.78996223 -0.0636592949 0.000309459965)
(1.80241202 -0.0613612713 0.000148310896)
(1.81489927 -0.0564687252 1.3841523e-05)
(1.82681769 -0.0489435754 -9.37428138e-05)
(1.83752507 -0.0389088605 -0.000174425218)
(4.39527528 0.00873570602 0.341177752)
(3.86107639 0.022370892 0.526402581)
(3.28224339 0.0321427524 0.416554406)
(2.71270601 0.0385575795 0.262416447)
(2.32914359 0.0420088237 0.146586577)
(2.10137251 0.042818478 0.0744822732)
(1.95959085 0.0413243776 0.0354432662)
(1.87028718 0.0378670113 0.0166360692)
(1.81548017 0.0327642954 0.0083525151)
(1.78144628 0.0263071745 0.00504927051)
(1.75933723 0.0187566584 0.00389684454)
(1.74443337 0.0103424254 0.00352209214)
(1.73428965 0.00126867536 0.00333522607)
(1.72760172 -0.00827593014 0.00313348526)
(1.72369379 -0.0181075462 0.00287365225)
(1.72223906 -0.02803654 0.00256630536)
(1.72308911 -0.0378569939 0.00223438469)
(1.72617881 -0.0473364316 0.00189848868)
(1.73147277 -0.0562065829 0.0015728944)
(1.7389289 -0.0641568026 0.00126598493)
(1.74846745 -0.0708320953 0.00098196485)
(1.75994135 -0.0758381887 0.000722574704)
(1.77310725 -0.0787564127 0.000488354641)
(1.7875995 -0.0791710037 0.000279551226)
(1.802912 -0.0767103101 9.67002639e-05)
(1.81839527 -0.0711009144 -5.90785801e-05)
(1.83327692 -0.0622294873 -0.000186118049)
(1.84671268 -0.0502015315 -0.000282675191)
(4.39513686 0.00700856896 0.341234938)
(3.8602278 0.0179366133 0.526571184)
(3.28014789 0.0257326885 0.416776538)
(2.70902971 0.0307797141 0.262624887)
(2.32383609 0.0333586445 0.146764117)
(2.0945149 0.0336894308 0.0746406313)
(1.95130698 0.0320086366 0.0355942406)
(1.86073212 0.0285592994 0.0167834232)
(1.8048212 0.0235713596 0.00849582895)
(1.76984931 0.017259709 0.00518724223)
(1.74696376 0.0098219999 0.0040280455)
(1.73144018 0.00143675734 0.00364526204)
(1.72083091 -0.00773216436 0.00344963717)
(1.71383463 -0.0175265819 0.00323911932)
(1.70978634 -0.0277839411 0.00297056273)
(1.70837879 -0.0383267381 0.00265408794)
(1.70949348 -0.0489507003 0.00231222962)
(1.71310571 -0.0594118491 0.00196528048)
(1.71922968 -0.0694136973 0.00162716286)
(1.7278785 -0.078596292 0.00130587103)
(1.73902705 -0.0865296764 0.00100525202)
(1.75257282 -0.0927153628 0.00072674136)
(1.76829392 -0.0966003268 0.000470713582)
(1.78580692 -0.0976085121 0.000237517097)
(1.80453164 -0.0951940372 2.82648158e-05)
(1.82367397 -0.0889173682 -0.00015463813)
(1.84224154 -0.0785394614 -0.000307386845)
(1.85910696 -0.0641192741 -0.000425451006)
(4.39501954 0.00553294189 0.341282956)
(3.85950906 0.0141438971 0.526713196)
(3.27837009 0.0202297154 0.416964293)
(2.70589565 0.0240594212 0.262802093)
(2.31927642 0.0258183248 0.146916516)
(2.08856439 0.0256454832 0.0747779409)
(1.94403405 0.0236996657 0.0357259066)
(1.85223337 0.020148083 0.0169121458)
(1.79520783 0.0151492317 0.00862100977)
(1.75923666 0.00885270367 0.00530770796)
(1.73546878 0.00139794212 0.00414252853)
(1.71918123 -0.00708737765 0.00375287871)
(1.70793059 -0.0164828366 0.00355038584)
(1.70042549 -0.0266668912 0.00333320878)
(1.69601856 -0.0375072701 0.00305780195)
(1.69443098 -0.048849471 0.00273390539)
(1.69558584 -0.0605024864 0.00238377085)
(1.69951457 -0.0722221432 0.00202726125)
(1.70630174 -0.0836928592 0.00167778913)
(1.71604231 -0.0945096858 0.00134279189)
(1.72879816 -0.104163727 0.00102551957)
(1.7445475 -0.112035742 0.000726784951)
(1.76312543 -0.117404872 0.000446404162)
(1.78415797 -0.11948116 0.000184433492)
(1.8069985 -0.117470963 -5.76708673e-05)
(1.83068313 -0.110681735 -0.000276020076)
(1.85392963 -0.0986640685 -0.000463751136)
(1.8752094 -0.0813741136 -0.000611947065)
(4.39491811 0.00427292054 0.341324307)
(3.8588872 0.0109028267 0.526835453)
(3.27682807 0.0155141509 0.417126116)
(2.7031647 0.0182728167 0.262955363)
(2.31527556 0.0192823109 0.147049184)
(2.08329528 0.0186160068 0.0748983681)
(1.93752332 0.0163713245 0.035841977)
(1.84453121 0.0126551732 0.017025862)
(1.78637826 0.00756696621 0.008731606)
(1.74934905 0.00119904039 0.00541396925)
(1.7245962 -0.00636357915 0.00424354164)
(1.70740166 -0.0150436529 0.00384864124)
(1.69532983 -0.0247674147 0.00364114786)
(1.6871024 -0.0354571604 0.00341893804)
(1.68209444 -0.0470214211 0.00313823242)
(1.68006278 -0.0593418456 0.00280856105)
(1.68098315 -0.0722561513 0.00245178252)
(1.68495961 -0.0855365791 0.00208724135)
(1.69217113 -0.0988642652 0.0017277228)
(1.70282827 -0.111801034 0.00137993008)
(1.717124 -0.123761781 0.00104623249)
(1.73517076 -0.133993521 0.000726387455)
(1.75691871 -0.141570885 0.000419046968)
(1.78205582 -0.145422025 0.000123249918)
(1.80989881 -0.14440227 -0.000159829693)
(1.83929785 -0.137432753 -0.000424912413)
(1.8685932 -0.123711526 -0.000661121078)
(1.89568468 -0.102984001 -0.00085249101)
(4.39482895 0.00320194191 0.3413608)
(3.85833918 0.00814675581 0.526942879)
(3.27546452 0.0114967695 0.417268127)
(2.70073901 0.0133266279 0.26309008)
(2.31169947 0.0136702173 0.147166235)
(2.07854585 0.0125469765 0.0750051564)
(1.93159464 0.0100049887 0.0359452997)
(1.83743571 0.00610228023 0.0171271716)
(1.77813879 0.000888117836 0.00882986731)
(1.73999211 -0.00559632151 0.00550827331)
(1.71415204 -0.0133169412 0.00433399773)
(1.6959054 -0.0222468093 0.00393546812)
(1.68282354 -0.032363034 0.00372427633)
(1.67364133 -0.0436399438 0.00349831671)
(1.66775782 -0.0560388539 0.00321376463)
(1.66496957 -0.0694938553 0.00287986983)
(1.66531335 -0.0838918784 0.00251804537)
(1.66898134 -0.0990456581 0.00214705844)
(1.67627318 -0.114658978 0.00177900226)
(1.68755515 -0.130284506 0.00141970821)
(1.70320897 -0.145276777 0.00107037747)
(1.72355759 -0.158746895 0.00072920628)
(1.74875751 -0.16953138 0.00039286788)
(1.77865283 -0.176195961 5.82488615e-05)
(1.81259604 -0.177104232 -0.000274983435)
(1.84926268 -0.170588475 -0.000601007194)
(1.88651472 -0.155254543 -0.000904071859)
(1.92143507 -0.130428901 -0.00115688012)
(4.39474953 0.00229981478 0.341393701)
(3.85784911 0.0058249548 0.527038942)
(3.27424002 0.00810935589 0.417394657)
(2.69855117 0.00914900979 0.263210089)
(2.3084555 0.00891963642 0.147270649)
(2.07420402 0.00739662497 0.0751006396)
(1.92612308 0.00458812836 0.0360377535)
(1.8308147 0.000511237768 0.0172174474)
(1.77035443 -0.00482785823 0.0089172572)
(1.73103153 -0.0114333149 0.00559295032)
(1.704003 -0.0193188675 0.00441624057)
(1.68455624 -0.028508664 0.00401504239)
(1.67026545 -0.0390352003 0.00380110929)
(1.65987489 -0.050933257 0.00357252338)
(1.65280447 -0.0642304564 0.00328536621)
(1.6488894 -0.0789328743 0.00294858041)
(1.64823074 -0.0950030697 0.00258312114)
(1.65112044 -0.11232792 0.00220718335)
(1.6580035 -0.130673763 0.00183215568)
(1.66944641 -0.149626989 0.00146292698)
(1.68609098 -0.168520487 0.00109935655)
(1.70857489 -0.186350758 0.000737643957)
(1.73739883 -0.201699229 0.00037158689)
(1.77272353 -0.212685669 -5.61632385e-06)
(1.81408824 -0.217000463 -0.000397932759)
(1.86007109 -0.212087851 -0.000801285585)
(1.90797272 -0.195560818 -0.00119314943)
(1.95370045 -0.165924037 -0.00152732279)
(4.39467815 0.0015505648 0.341423866)
(3.85740648 0.00389728861 0.527125996)
(3.2731286 0.00529769419 0.417508659)
(2.69655687 0.00568235173 0.26331801)
(2.3054831 0.00497998047 0.147364431)
(2.0701975 0.00313120037 0.0751862026)
(1.92102859 0.000110852682 0.0361199726)
(1.82458476 -0.00409841749 0.0172975779)
(1.7629437 -0.00952609573 0.00899568637)
(1.72239047 -0.0162164202 0.00566996306)
(1.69407594 -0.0242286536 0.00449149523)
(1.67328126 -0.0336384183 0.004088262)
(1.65757597 -0.0445370759 0.00387234478)
(1.64570501 -0.0570279571 0.00364196509)
(1.63709982 -0.0712191914 0.00335307524)
(1.6316256 -0.0872109773 0.00301429661)
(1.62944259 -0.105073735 0.00264613315)
(1.63094508 -0.124812852 0.00226623114)
(1.63674077 -0.146314898 0.00188529633)
(1.6476391 -0.169269733 0.00150733554)
(1.66462347 -0.193063872 0.00113097137)
(1.68878051 -0.216644325 0.000750402107)
(1.72115374 -0.238362842 0.000356129086)
(1.76248171 -0.255830982 -6.37920195e-05)
(1.81277684 -0.265850917 -0.000520549495)
(1.87075171 -0.264552271 -0.00101703842)
(1.93313462 -0.247891571 -0.00152326159)
(1.99419613 -0.212793892 -0.00196492889)
(4.39461382 0.000940682726 0.341451865)
(3.85700495 0.00233018003 0.527205577)
(3.27211464 0.00301623295 0.417612016)
(2.69472983 0.00287752246 0.263415448)
(2.30274755 0.00180739338 0.14744865)
(2.06648565 -0.000280455416 0.0752619179)
(1.91626799 -0.00343903061 0.0361924932)
(1.81870634 -0.00771221142 0.0173692667)
(1.75587505 -0.01315859 0.00906686906)
(1.71404679 -0.0198581837 0.00574022193)
(1.68435838 -0.0279125288 0.00456039345)
(1.66207571 -0.0374471781 0.00415556048)
(1.6447522 -0.0486140134 0.0039380983)
(1.63111925 -0.0615912315 0.00370632491)
(1.62060291 -0.0765804784 0.00341601951)
(1.61307962 -0.0937987026 0.00307542418)
(1.60875039 -0.113460318 0.00270451354)
(1.60809857 -0.135743609 0.00232028886)
(1.61189538 -0.160733041 0.00193274913)
(1.6212222 -0.188326324 0.00154519771)
(1.6374829 -0.218092871 0.00115548541)
(1.6623722 -0.249070936 0.000756811513)
(1.69774841 -0.279498807 0.000338099794)
(1.74533297 -0.306497865 -0.000115876322)
(1.80612933 -0.325780121 -0.000622477423)
(1.87952199 -0.331578847 -0.00119764779)
(1.96188084 -0.317067748 -0.00181178459)
(2.04536622 -0.276116188 -0.00239200804)
(4.39455635 0.000457580351 0.341478307)
(3.85664202 0.00109332962 0.527278823)
(3.2711909 0.00122417799 0.417705818)
(2.69305826 0.000689181073 0.263503025)
(2.30023389 -0.00064112805 0.147523058)
(2.06305287 -0.00287283805 0.0753281654)
(1.91183104 -0.0060795053 0.0362569552)
(1.81317973 -0.0103242435 0.0174340737)
(1.74916203 -0.0156896836 0.00913153064)
(1.70603048 -0.0222860193 0.00580417931)
(1.6748994 -0.0302514816 0.0046231919)
(1.65100811 -0.0397574495 0.00421691182)
(1.63187882 -0.0510146808 0.00399795977)
(1.61620961 -0.0642785239 0.0037646759)
(1.6033958 -0.0798528728 0.00347253294)
(1.59329375 -0.0980905299 0.00312917941)
(1.58610881 -0.119385241 0.00275374756)
(1.58237557 -0.144148051 0.00236219637)
(1.58299841 -0.172756451 0.00196341843)
(1.58932524 -0.205458574 0.00155982403)
(1.60323129 -0.242206832 0.00114898142)
(1.6271767 -0.28238764 0.000725176123)
(1.66416872 -0.324410805 0.000280445529)
(1.71750143 -0.365134328 -0.000193887262)
(1.79009563 -0.399189707 -0.000702590501)
(1.88316664 -0.418312662 -0.00125331857)
(1.99359921 -0.411188753 -0.0017807305)
(2.11138087 -0.365549532 -0.00233768772)
(4.39450669 9.03197823e-05 0.341504502)
(3.85631969 0.000158170172 0.527347241)
(3.27035734 -0.000119022999 0.417790589)
(2.69154048 -0.000929028508 0.263580847)
(2.29794249 -0.00241233449 0.147588249)
(2.05990635 -0.00468643625 0.0753867444)
(1.90773647 -0.00783775536 0.0363148714)
(1.8080386 -0.0119433071 0.0174925896)
(1.74285812 -0.0171035555 0.00918997216)
(1.6984207 -0.0234510165 0.00586194588)
(1.66580911 -0.0311526249 0.00467977348)
(1.64022347 -0.0404179225 0.00427192527)
(1.6191372 -0.0515097733 0.00405117124)
(1.60119076 -0.0647561402 0.00381569874)
(1.58571532 -0.0805633739 0.00352038107)
(1.5725022 -0.0994294929 0.0031717943)
(1.56170271 -0.12195352 0.00278747473)
(1.55383124 -0.148833737 0.00238123756)
(1.54984613 -0.180841794 0.00195943603)
(1.55129181 -0.218749328 0.00152209732)
(1.56049074 -0.263167432 0.00106590114)
(1.58075955 -0.314235824 0.000588165192)
(1.61657804 -0.371068464 9.09542939e-05)
(1.67356386 -0.430871016 -0.000411346235)
(1.75799387 -0.487671057 -0.000894162603)
(1.87526994 -0.530527224 -0.00133755369)
(2.02571486 -0.542109742 -0.00153805389)
(2.20013606 -0.498426843 -0.00199803985)
(4.39446468 -0.00017054592 0.341530066)
(3.85603864 -0.000503998099 0.527410305)
(3.26961676 -0.00105697366 0.417866206)
(2.69018345 -0.00202734746 0.263649518)
(2.29588754 -0.00355816283 0.147645848)
(2.05707141 -0.00577037456 0.0754389035)
(1.90402458 -0.00875588085 0.0363666804)
(1.80334345 -0.0125995967 0.0175449164)
(1.73705112 -0.0174119362 0.00924211817)
(1.69134064 -0.023338266 0.00591329298)
(1.65725477 -0.0305634594 0.00472975929)
(1.62994215 -0.0393230516 0.0043200337)
(1.60680952 -0.0499185064 0.00409686247)
(1.5864132 -0.0627361731 0.00385799027)
(1.56798125 -0.0782715738 0.00355720113)
(1.55118326 -0.0971593121 0.00319914417)
(1.53603584 -0.120207222 0.00279828957)
(1.52292193 -0.14843074 0.00236388706)
(1.51270895 -0.183077379 0.00189604603)
(1.50696649 -0.225618239 0.00138745756)
(1.5082998 -0.277658222 0.000828980024)
(1.52080909 -0.340669171 0.000220988785)
(1.55064489 -0.415365723 -0.000406345024)
(1.60654246 -0.500541858 -0.000974608277)
(1.70009588 -0.590845356 -0.00140117029)
(1.84456879 -0.673002065 -0.00165610185)
(2.05113108 -0.722122717 -0.00178349514)
(2.32357092 -0.68943657 -0.00428009211)
(4.39442877 -0.000336863663 0.341552718)
(3.85579637 -0.000925048566 0.52746539)
(3.26897355 -0.00163596468 0.417931826)
(2.6890014 -0.00266095888 0.2637092)
(2.29409251 -0.00413925415 0.147696094)
(2.05458449 -0.00618767458 0.075484598)
(1.90075064 -0.00889603477 0.0364121131)
(1.79917498 -0.0123500851 0.0175907121)
(1.73185549 -0.016661535 0.00928757858)
(1.68494888 -0.0219776298 0.00595779051)
(1.64945179 -0.0284875554 0.00477267487)
(1.62045167 -0.0364359021 0.00436067964)
(1.59527329 -0.0461416443 0.00413430176)
(1.57236449 -0.0580234975 0.00389046509)
(1.55081136 -0.0726348697 0.00358119115)
(1.5301002 -0.0907114201 0.00320793991)
(1.51001655 -0.113234369 0.00277973682)
(1.49066385 -0.141512688 0.00229684945)
(1.47259776 -0.177284887 0.00174517227)
(1.45710015 -0.222832508 0.00109637784)
(1.44665559 -0.281073884 0.000314520394)
(1.44572964 -0.355538762 -0.000620279186)
(1.46197419 -0.4500808 -0.00165914526)
(1.50795671 -0.567821566 -0.00261631391)
(1.60346553 -0.708288983 -0.00320490912)
(1.77555235 -0.860740784 -0.00289464488)
(2.0626184 -0.990925619 -0.0024712209)