/*--------------------------------*- C++ -*----------------------------------*\
| =========                 |                                                 |
| \\      /  F ield         | foam-extend: Open Source CFD                    |
|  \\    /   O peration     | Version:     4.1                                |
|   \\  /    A nd           | Web:         http://www.foam-extend.org         |
|    \\/     M anipulation  |                                                 |
\*---------------------------------------------------------------------------*/
FoamFile
{
    version     2.0;
    format      ascii;
    class       volScalarField::DimensionedInternalField;
    location    "0.55";
    object      V0;
}
// * * * * * * * * * * * * * * * * * * * * * * * * * * * * * * * * * * * * * //

dimensions      [0 3 0 0 0 0 0];

value           nonuniform List<scalar> 
35840
(
1.00000015e-06
1.00000046e-06
1.00000078e-06
1.00000112e-06
1.0000015e-06
1.00000194e-06
1.00000244e-06
1.00000302e-06
1.0000037e-06
1.00000448e-06
1.00000539e-06
1.00000643e-06
1.00000762e-06
1.00000896e-06
1.00001045e-06
1.0000121e-06
1.00001389e-06
1.00001582e-06
1.00001786e-06
1.00001999e-06
1.00002216e-06
1.00002434e-06
1.00002647e-06
1.0000285e-06
1.00003037e-06
1.00003204e-06
1.00003343e-06
1.00003452e-06
1.00000015e-06
1.00000047e-06
1.00000079e-06
1.00000114e-06
1.00000153e-06
1.00000198e-06
1.00000249e-06
1.00000309e-06
1.00000379e-06
1.0000046e-06
1.00000554e-06
1.00000662e-06
1.00000785e-06
1.00000924e-06
1.0000108e-06
1.00001252e-06
1.00001439e-06
1.00001642e-06
1.00001856e-06
1.0000208e-06
1.0000231e-06
1.0000254e-06
1.00002766e-06
1.00002981e-06
1.0000318e-06
1.00003357e-06
1.00003506e-06
1.00003623e-06
1.00000016e-06
1.00000049e-06
1.00000084e-06
1.00000121e-06
1.00000163e-06
1.0000021e-06
1.00000265e-06
1.0000033e-06
1.00000405e-06
1.00000494e-06
1.00000596e-06
1.00000715e-06
1.0000085e-06
1.00001004e-06
1.00001178e-06
1.0000137e-06
1.00001581e-06
1.00001809e-06
1.00002052e-06
1.00002307e-06
1.00002569e-06
1.00002833e-06
1.00003093e-06
1.00003342e-06
1.00003573e-06
1.00003779e-06
1.00003952e-06
1.00004088e-06
1.00000018e-06
1.00000054e-06
1.00000092e-06
1.00000133e-06
1.00000179e-06
1.00000232e-06
1.00000295e-06
1.00000367e-06
1.00000453e-06
1.00000554e-06
1.00000673e-06
1.0000081e-06
1.00000969e-06
1.0000115e-06
1.00001355e-06
1.00001584e-06
1.00001837e-06
1.00002112e-06
1.00002407e-06
1.00002718e-06
1.00003039e-06
1.00003365e-06
1.00003687e-06
1.00003996e-06
1.00004284e-06
1.00004542e-06
1.0000476e-06
1.0000493e-06
1.0000002e-06
1.00000061e-06
1.00000104e-06
1.00000151e-06
1.00000204e-06
1.00000265e-06
1.00000337e-06
1.00000422e-06
1.00000523e-06
1.00000643e-06
1.00000785e-06
1.0000095e-06
1.00001143e-06
1.00001364e-06
1.00001616e-06
1.000019e-06
1.00002216e-06
1.00002561e-06
1.00002934e-06
1.0000333e-06
1.00003742e-06
1.00004161e-06
1.00004577e-06
1.00004979e-06
1.00005355e-06
1.00005692e-06
1.00005979e-06
1.00006203e-06
1.00000023e-06
1.0000007e-06
1.0000012e-06
1.00000174e-06
1.00000235e-06
1.00000307e-06
1.00000392e-06
1.00000494e-06
1.00000616e-06
1.00000761e-06
1.00000934e-06
1.00001138e-06
1.00001376e-06
1.00001653e-06
1.0000197e-06
1.0000233e-06
1.00002733e-06
1.00003177e-06
1.0000366e-06
1.00004175e-06
1.00004715e-06
1.00005267e-06
1.00005819e-06
1.00006354e-06
1.00006857e-06
1.00007309e-06
1.00007694e-06
1.00007997e-06
1.00000027e-06
1.00000082e-06
1.00000139e-06
1.00000202e-06
1.00000275e-06
1.0000036e-06
1.00000462e-06
1.00000585e-06
1.00000733e-06
1.00000911e-06
1.00001124e-06
1.00001378e-06
1.00001677e-06
1.00002026e-06
1.0000243e-06
1.00002891e-06
1.0000341e-06
1.00003988e-06
1.0000462e-06
1.00005298e-06
1.00006013e-06
1.0000675e-06
1.00007489e-06
1.00008211e-06
1.00008891e-06
1.00009505e-06
1.0001003e-06
1.00010443e-06
1.00000031e-06
1.00000095e-06
1.00000162e-06
1.00000236e-06
1.00000322e-06
1.00000424e-06
1.00000546e-06
1.00000695e-06
1.00000876e-06
1.00001095e-06
1.00001359e-06
1.00001676e-06
1.00002051e-06
1.00002494e-06
1.00003009e-06
1.00003602e-06
1.00004275e-06
1.00005029e-06
1.00005859e-06
1.00006757e-06
1.00007709e-06
1.00008696e-06
1.00009693e-06
1.00010671e-06
1.00011596e-06
1.00012435e-06
1.00013153e-06
1.00013721e-06
1.00000036e-06
1.0000011e-06
1.00000189e-06
1.00000276e-06
1.00000377e-06
1.00000499e-06
1.00000646e-06
1.00000826e-06
1.00001046e-06
1.00001316e-06
1.00001643e-06
1.00002037e-06
1.0000251e-06
1.0000307e-06
1.00003727e-06
1.00004489e-06
1.00005361e-06
1.00006344e-06
1.00007435e-06
1.00008624e-06
1.00009893e-06
1.00011217e-06
1.00012563e-06
1.0001389e-06
1.00015153e-06
1.00016302e-06
1.00017289e-06
1.00018071e-06
1.00000042e-06
1.00000128e-06
1.00000219e-06
1.00000321e-06
1.00000441e-06
1.00000585e-06
1.00000761e-06
1.00000978e-06
1.00001246e-06
1.00001576e-06
1.00001979e-06
1.00002469e-06
1.0000306e-06
1.00003767e-06
1.00004602e-06
1.00005579e-06
1.00006705e-06
1.00007984e-06
1.00009415e-06
1.00010987e-06
1.00012676e-06
1.00014452e-06
1.00016269e-06
1.00018071e-06
1.00019794e-06
1.00021369e-06
1.00022727e-06
1.00023806e-06
1.00000048e-06
1.00000147e-06
1.00000253e-06
1.00000372e-06
1.00000512e-06
1.00000683e-06
1.00000892e-06
1.00001153e-06
1.00001476e-06
1.00001877e-06
1.00002371e-06
1.00002977e-06
1.00003713e-06
1.00004599e-06
1.00005656e-06
1.00006901e-06
1.00008349e-06
1.00010008e-06
1.00011878e-06
1.00013948e-06
1.00016192e-06
1.00018568e-06
1.00021016e-06
1.0002346e-06
1.0002581e-06
1.0002797e-06
1.00029839e-06
1.00031329e-06
1.00000056e-06
1.00000169e-06
1.0000029e-06
1.00000427e-06
1.00000591e-06
1.00000791e-06
1.00001039e-06
1.00001348e-06
1.00001736e-06
1.0000222e-06
1.00002821e-06
1.00003564e-06
1.00004474e-06
1.00005579e-06
1.00006907e-06
1.00008484e-06
1.00010335e-06
1.00012474e-06
1.00014907e-06
1.00017623e-06
1.00020592e-06
1.00023761e-06
1.00027053e-06
1.00030362e-06
1.00033566e-06
1.00036524e-06
1.00039097e-06
1.00041153e-06
1.00000063e-06
1.00000192e-06
1.00000329e-06
1.00000487e-06
1.00000675e-06
1.00000907e-06
1.00001197e-06
1.00001563e-06
1.00002024e-06
1.00002604e-06
1.0000333e-06
1.00004233e-06
1.00005348e-06
1.00006714e-06
1.0000837e-06
1.00010355e-06
1.00012704e-06
1.00015445e-06
1.00018591e-06
1.00022135e-06
1.00026046e-06
1.00030259e-06
1.0003467e-06
1.00039142e-06
1.000435e-06
1.0004755e-06
1.00051089e-06
1.00053928e-06
1.00000071e-06
1.00000215e-06
1.00000371e-06
1.00000549e-06
1.00000763e-06
1.0000103e-06
1.00001366e-06
1.00001793e-06
1.00002336e-06
1.00003024e-06
1.00003893e-06
1.00004981e-06
1.00006335e-06
1.00008009e-06
1.00010055e-06
1.00012532e-06
1.0001549e-06
1.00018975e-06
1.00023014e-06
1.00027612e-06
1.00032736e-06
1.00038308e-06
1.000442e-06
1.00050224e-06
1.00056143e-06
1.0006168e-06
1.00066545e-06
1.00070462e-06
1.00000079e-06
1.00000239e-06
1.00000412e-06
1.00000612e-06
1.00000854e-06
1.00001157e-06
1.00001543e-06
1.00002035e-06
1.00002666e-06
1.00003473e-06
1.00004499e-06
1.00005797e-06
1.00007428e-06
1.00009456e-06
1.0001196e-06
1.0001502e-06
1.00018712e-06
1.00023104e-06
1.0002825e-06
1.00034169e-06
1.00040838e-06
1.00048169e-06
1.00056001e-06
1.00064089e-06
1.00072108e-06
1.00079669e-06
1.00086354e-06
1.0009176e-06
1.00000086e-06
1.00000262e-06
1.00000453e-06
1.00000675e-06
1.00000945e-06
1.00001286e-06
1.00001721e-06
1.00002283e-06
1.00003008e-06
1.00003941e-06
1.00005138e-06
1.00006665e-06
1.00008599e-06
1.00011032e-06
1.00014067e-06
1.00017808e-06
1.00022365e-06
1.00027846e-06
1.00034338e-06
1.00041894e-06
1.00050507e-06
1.00060089e-06
1.00070444e-06
1.00081259e-06
1.00092095e-06
1.00102405e-06
1.00111586e-06
1.0011905e-06
1.00000093e-06
1.00000284e-06
1.00000492e-06
1.00000734e-06
1.00001032e-06
1.00001409e-06
1.00001896e-06
1.00002527e-06
1.00003348e-06
1.00004413e-06
1.00005791e-06
1.00007562e-06
1.00009827e-06
1.00012708e-06
1.00016339e-06
1.00020857e-06
1.00026414e-06
1.00033172e-06
1.00041274e-06
1.00050821e-06
1.00061845e-06
1.00074269e-06
1.00087874e-06
1.00102267e-06
1.00116863e-06
1.00130905e-06
1.00143519e-06
1.00153837e-06
1.000001e-06
1.00000304e-06
1.00000526e-06
1.00000787e-06
1.0000111e-06
1.00001523e-06
1.00002058e-06
1.00002757e-06
1.00003673e-06
1.00004871e-06
1.00006432e-06
1.00008459e-06
1.00011077e-06
1.00014433e-06
1.00018696e-06
1.00024061e-06
1.00030757e-06
1.00038995e-06
1.00048976e-06
1.00060894e-06
1.00074854e-06
1.00090815e-06
1.00108552e-06
1.00127599e-06
1.00147198e-06
1.00166307e-06
1.00183665e-06
1.00197973e-06
1.00000105e-06
1.00000319e-06
1.00000554e-06
1.00000831e-06
1.00001176e-06
1.00001619e-06
1.00002198e-06
1.0000296e-06
1.00003965e-06
1.00005289e-06
1.00007029e-06
1.00009306e-06
1.00012274e-06
1.00016111e-06
1.00021033e-06
1.00027309e-06
1.0003523e-06
1.00045095e-06
1.0005723e-06
1.00071926e-06
1.00089385e-06
1.00109663e-06
1.00132577e-06
1.00157618e-06
1.0018385e-06
1.00209862e-06
1.00233838e-06
1.00253807e-06
1.00000108e-06
1.0000033e-06
1.00000573e-06
1.00000862e-06
1.00001224e-06
1.00001691e-06
1.00002306e-06
1.0000312e-06
1.00004202e-06
1.00005637e-06
1.00007539e-06
1.00010048e-06
1.00013343e-06
1.00017646e-06
1.00023233e-06
1.00030435e-06
1.0003962e-06
1.00051221e-06
1.00065717e-06
1.00083547e-06
1.00105068e-06
1.00130493e-06
1.00159772e-06
1.00192447e-06
1.0022745e-06
1.00262938e-06
1.00296311e-06
1.00324519e-06
1.00000109e-06
1.00000334e-06
1.00000582e-06
1.00000877e-06
1.00001248e-06
1.00001732e-06
1.00002371e-06
1.00003223e-06
1.00004363e-06
1.00005886e-06
1.00007918e-06
1.00010622e-06
1.00014205e-06
1.0001893e-06
1.00025129e-06
1.00033204e-06
1.00043646e-06
1.00057027e-06
1.00073964e-06
1.00095145e-06
1.00121223e-06
1.00152626e-06
1.00189547e-06
1.00231815e-06
1.00278408e-06
1.00327083e-06
1.00374191e-06
1.00414903e-06
1.00000108e-06
1.00000331e-06
1.00000578e-06
1.00000873e-06
1.00001246e-06
1.00001734e-06
1.00002383e-06
1.00003254e-06
1.00004426e-06
1.00006002e-06
1.00008121e-06
1.00010961e-06
1.00014758e-06
1.00019814e-06
1.00026514e-06
1.00035345e-06
1.00046909e-06
1.00061933e-06
1.00081252e-06
1.00105821e-06
1.00136628e-06
1.00174622e-06
1.00220601e-06
1.00274862e-06
1.00336805e-06
1.00404208e-06
1.00472253e-06
1.00533139e-06
1.00000105e-06
1.00000321e-06
1.0000056e-06
1.00000847e-06
1.00001212e-06
1.00001692e-06
1.00002334e-06
1.000032e-06
1.00004371e-06
1.00005957e-06
1.00008103e-06
1.00011001e-06
1.00014905e-06
1.00020151e-06
1.00027172e-06
1.00036529e-06
1.00048932e-06
1.00065271e-06
1.00086632e-06
1.00114285e-06
1.00149703e-06
1.00194634e-06
1.00250894e-06
1.00319887e-06
1.00402256e-06
1.00496935e-06
1.00598599e-06
1.00694643e-06
1.00000098e-06
1.00000301e-06
1.00000526e-06
1.00000798e-06
1.00001144e-06
1.00001602e-06
1.00002218e-06
1.00003051e-06
1.00004185e-06
1.00005728e-06
1.00007828e-06
1.00010683e-06
1.00014559e-06
1.00019808e-06
1.00026898e-06
1.00036446e-06
1.00049254e-06
1.00066361e-06
1.00089095e-06
1.00119128e-06
1.00158617e-06
1.00210252e-06
1.00277294e-06
1.0036371e-06
1.0047345e-06
1.00608998e-06
1.00767432e-06
1.00929692e-06
1.00000089e-06
1.00000273e-06
1.00000478e-06
1.00000725e-06
1.00001042e-06
1.00001463e-06
1.0000203e-06
1.00002802e-06
1.00003857e-06
1.00005299e-06
1.00007272e-06
1.0000997e-06
1.00013656e-06
1.00018684e-06
1.00025531e-06
1.00034837e-06
1.00047461e-06
1.00064548e-06
1.00087634e-06
1.00118794e-06
1.00160871e-06
1.00217809e-06
1.00295126e-06
1.00400832e-06
1.00546384e-06
1.00744413e-06
1.0100197e-06
1.01295032e-06
1.00000077e-06
1.00000236e-06
1.00000414e-06
1.0000063e-06
1.00000907e-06
1.00001275e-06
1.00001774e-06
1.00002455e-06
1.00003388e-06
1.0000467e-06
1.00006431e-06
1.0000885e-06
1.00012172e-06
1.00016731e-06
1.00022982e-06
1.00031546e-06
1.00043272e-06
1.00059331e-06
1.00081355e-06
1.00111681e-06
1.0015376e-06
1.00212913e-06
1.00297695e-06
1.00422224e-06
1.00610252e-06
1.00899999e-06
1.01329756e-06
1.01873443e-06
1.00000063e-06
1.00000192e-06
1.00000337e-06
1.00000513e-06
1.0000074e-06
1.00001043e-06
1.00001454e-06
1.00002016e-06
1.00002788e-06
1.00003852e-06
1.00005319e-06
1.00007342e-06
1.0001013e-06
1.00013974e-06
1.00019272e-06
1.00026572e-06
1.0003664e-06
1.00050551e-06
1.00069856e-06
1.00096875e-06
1.00135277e-06
1.00191283e-06
1.00276218e-06
1.00411791e-06
1.00639756e-06
1.01037323e-06
1.01743481e-06
1.02661721e-06
1.00000046e-06
1.00000142e-06
1.00000249e-06
1.0000038e-06
1.00000548e-06
1.00000773e-06
1.00001079e-06
1.00001499e-06
1.00002077e-06
1.00002874e-06
1.00003976e-06
1.00005499e-06
1.00007605e-06
1.00010516e-06
1.00014542e-06
1.0002011e-06
1.00027823e-06
1.00038536e-06
1.00053507e-06
1.00074663e-06
1.0010518e-06
1.00150775e-06
1.00222773e-06
1.00345507e-06
1.00572866e-06
1.01012049e-06
1.01767819e-06
1.03960508e-06
1.00000044e-06
1.00000133e-06
1.00000225e-06
1.00000325e-06
1.00000436e-06
1.00000562e-06
1.00000708e-06
1.00000877e-06
1.00001073e-06
1.00001301e-06
1.00001565e-06
1.00001867e-06
1.00002211e-06
1.00002599e-06
1.00003032e-06
1.0000351e-06
1.00004031e-06
1.00004591e-06
1.00005183e-06
1.000058e-06
1.00006431e-06
1.00007063e-06
1.00007681e-06
1.00008271e-06
1.00008815e-06
1.00009297e-06
1.00009703e-06
1.0001002e-06
1.00000045e-06
1.00000136e-06
1.0000023e-06
1.00000332e-06
1.00000445e-06
1.00000574e-06
1.00000724e-06
1.00000897e-06
1.000011e-06
1.00001335e-06
1.00001607e-06
1.0000192e-06
1.00002278e-06
1.00002681e-06
1.00003133e-06
1.00003632e-06
1.00004177e-06
1.00004764e-06
1.00005387e-06
1.00006037e-06
1.00006703e-06
1.00007371e-06
1.00008026e-06
1.00008651e-06
1.0000923e-06
1.00009743e-06
1.00010176e-06
1.00010514e-06
1.00000048e-06
1.00000144e-06
1.00000243e-06
1.00000351e-06
1.00000472e-06
1.0000061e-06
1.0000077e-06
1.00000957e-06
1.00001177e-06
1.00001432e-06
1.0000173e-06
1.00002074e-06
1.00002468e-06
1.00002915e-06
1.00003417e-06
1.00003976e-06
1.00004588e-06
1.0000525e-06
1.00005956e-06
1.00006696e-06
1.00007456e-06
1.00008223e-06
1.00008977e-06
1.000097e-06
1.0001037e-06
1.00010966e-06
1.0001147e-06
1.00011864e-06
1.00000052e-06
1.00000158e-06
1.00000267e-06
1.00000387e-06
1.00000521e-06
1.00000675e-06
1.00000855e-06
1.00001066e-06
1.00001316e-06
1.00001609e-06
1.00001952e-06
1.00002351e-06
1.00002811e-06
1.00003337e-06
1.00003932e-06
1.00004597e-06
1.0000533e-06
1.00006129e-06
1.00006985e-06
1.00007887e-06
1.0000882e-06
1.00009765e-06
1.00010699e-06
1.00011597e-06
1.00012433e-06
1.0001318e-06
1.00013813e-06
1.00014308e-06
1.00000059e-06
1.00000178e-06
1.00000302e-06
1.00000437e-06
1.00000591e-06
1.00000768e-06
1.00000977e-06
1.00001225e-06
1.00001519e-06
1.00001867e-06
1.00002277e-06
1.00002758e-06
1.00003316e-06
1.00003959e-06
1.00004691e-06
1.00005514e-06
1.0000643e-06
1.00007434e-06
1.00008516e-06
1.00009664e-06
1.00010858e-06
1.00012075e-06
1.00013283e-06
1.00014451e-06
1.00015542e-06
1.0001652e-06
1.00017351e-06
1.00018003e-06
1.00000067e-06
1.00000204e-06
1.00000347e-06
1.00000504e-06
1.00000683e-06
1.00000891e-06
1.00001139e-06
1.00001434e-06
1.00001788e-06
1.0000221e-06
1.00002711e-06
1.00003302e-06
1.00003995e-06
1.00004797e-06
1.00005718e-06
1.00006763e-06
1.00007932e-06
1.00009221e-06
1.00010622e-06
1.00012117e-06
1.00013683e-06
1.00015285e-06
1.00016887e-06
1.00018441e-06
1.000199e-06
1.00021212e-06
1.00022329e-06
1.00023209e-06
1.00000078e-06
1.00000237e-06
1.00000403e-06
1.00000587e-06
1.00000797e-06
1.00001045e-06
1.00001341e-06
1.00001697e-06
1.00002127e-06
1.00002644e-06
1.00003263e-06
1.00003999e-06
1.00004866e-06
1.0000588e-06
1.00007051e-06
1.00008389e-06
1.00009897e-06
1.00011573e-06
1.00013406e-06
1.00015376e-06
1.00017451e-06
1.00019588e-06
1.00021735e-06
1.0002383e-06
1.00025803e-06
1.00027585e-06
1.00029107e-06
1.00030307e-06
1.00000091e-06
1.00000275e-06
1.0000047e-06
1.00000686e-06
1.00000935e-06
1.0000123e-06
1.00001586e-06
1.00002018e-06
1.00002542e-06
1.00003178e-06
1.00003944e-06
1.00004863e-06
1.00005954e-06
1.00007238e-06
1.00008733e-06
1.00010453e-06
1.00012407e-06
1.00014594e-06
1.00017003e-06
1.00019609e-06
1.00022372e-06
1.00025236e-06
1.0002813e-06
1.00030967e-06
1.00033653e-06
1.00036087e-06
1.00038172e-06
1.0003982e-06
1.00000106e-06
1.0000032e-06
1.00000548e-06
1.00000801e-06
1.00001095e-06
1.00001448e-06
1.00001875e-06
1.00002397e-06
1.00003037e-06
1.00003818e-06
1.00004767e-06
1.00005912e-06
1.00007283e-06
1.00008908e-06
1.00010816e-06
1.00013027e-06
1.00015557e-06
1.00018411e-06
1.00021577e-06
1.00025027e-06
1.0002871e-06
1.00032553e-06
1.00036459e-06
1.00040311e-06
1.00043975e-06
1.00047309e-06
1.00050174e-06
1.00052444e-06
1.00000122e-06
1.00000371e-06
1.00000636e-06
1.00000933e-06
1.0000128e-06
1.00001698e-06
1.0000221e-06
1.0000284e-06
1.00003617e-06
1.00004572e-06
1.00005743e-06
1.00007165e-06
1.00008881e-06
1.00010932e-06
1.00013356e-06
1.0001619e-06
1.00019458e-06
1.00023172e-06
1.00027325e-06
1.00031884e-06
1.00036788e-06
1.00041941e-06
1.00047212e-06
1.00052442e-06
1.00057442e-06
1.00062012e-06
1.00065954e-06
1.00069086e-06
1.00000141e-06
1.00000428e-06
1.00000735e-06
1.0000108e-06
1.00001487e-06
1.00001981e-06
1.0000259e-06
1.00003345e-06
1.00004283e-06
1.00005446e-06
1.00006881e-06
1.00008638e-06
1.00010774e-06
1.00013347e-06
1.00016414e-06
1.00020027e-06
1.00024228e-06
1.00029043e-06
1.0003447e-06
1.00040478e-06
1.0004699e-06
1.00053884e-06
1.00060988e-06
1.00068081e-06
1.00074901e-06
1.00081167e-06
1.00086592e-06
1.00090914e-06
1.00000161e-06
1.0000049e-06
1.00000842e-06
1.0000124e-06
1.00001714e-06
1.00002295e-06
1.00003014e-06
1.00003912e-06
1.00005037e-06
1.00006442e-06
1.00008188e-06
1.00010343e-06
1.00012984e-06
1.0001619e-06
1.00020044e-06
1.00024623e-06
1.00029993e-06
1.00036201e-06
1.0004326e-06
1.00051142e-06
1.00059758e-06
1.00068955e-06
1.00078506e-06
1.00088109e-06
1.00097404e-06
1.00105987e-06
1.00113452e-06
1.00119418e-06
1.00000183e-06
1.00000557e-06
1.00000956e-06
1.00001412e-06
1.00001959e-06
1.00002632e-06
1.00003473e-06
1.00004535e-06
1.00005874e-06
1.00007556e-06
1.00009663e-06
1.00012284e-06
1.00015521e-06
1.00019485e-06
1.00024291e-06
1.00030052e-06
1.00036869e-06
1.00044822e-06
1.00053951e-06
1.00064237e-06
1.00075586e-06
1.00087808e-06
1.00100609e-06
1.00113582e-06
1.00126227e-06
1.00137975e-06
1.0014824e-06
1.00156473e-06
1.00000205e-06
1.00000624e-06
1.00001075e-06
1.00001593e-06
1.00002216e-06
1.00002988e-06
1.00003964e-06
1.00005204e-06
1.00006778e-06
1.00008776e-06
1.00011297e-06
1.00014454e-06
1.00018386e-06
1.00023241e-06
1.00029181e-06
1.00036368e-06
1.00044953e-06
1.00055066e-06
1.00066788e-06
1.00080128e-06
1.00094995e-06
1.00111163e-06
1.00128254e-06
1.00145728e-06
1.00162896e-06
1.00178954e-06
1.00193061e-06
1.00204418e-06
1.00000228e-06
1.00000693e-06
1.00001196e-06
1.00001776e-06
1.00002479e-06
1.00003359e-06
1.00004478e-06
1.00005907e-06
1.00007738e-06
1.00010079e-06
1.00013055e-06
1.00016824e-06
1.00021556e-06
1.00027442e-06
1.00034709e-06
1.00043589e-06
1.00054301e-06
1.00067047e-06
1.00081978e-06
1.00099153e-06
1.001185e-06
1.00139766e-06
1.00162482e-06
1.00185936e-06
1.00209185e-06
1.00231102e-06
1.00250472e-06
1.00266134e-06
1.0000025e-06
1.00000761e-06
1.00001315e-06
1.00001958e-06
1.00002743e-06
1.00003731e-06
1.00004996e-06
1.00006626e-06
1.0000873e-06
1.00011436e-06
1.0001491e-06
1.00019343e-06
1.00024955e-06
1.00032017e-06
1.00040823e-06
1.00051679e-06
1.00064903e-06
1.00080806e-06
1.00099643e-06
1.00121563e-06
1.00146546e-06
1.00174332e-06
1.00204356e-06
1.00235702e-06
1.00267094e-06
1.00296952e-06
1.00323529e-06
1.00345126e-06
1.00000271e-06
1.00000825e-06
1.00001428e-06
1.00002131e-06
1.00002995e-06
1.0000409e-06
1.00005502e-06
1.00007335e-06
1.00009716e-06
1.00012807e-06
1.00016807e-06
1.00021947e-06
1.00028519e-06
1.00036878e-06
1.00047415e-06
1.00060527e-06
1.0007665e-06
1.00096258e-06
1.00119762e-06
1.00147452e-06
1.00179419e-06
1.00215433e-06
1.00254852e-06
1.0029653e-06
1.00338771e-06
1.00379373e-06
1.0041582e-06
1.0044561e-06
1.00000289e-06
1.00000881e-06
1.00001527e-06
1.00002285e-06
1.00003222e-06
1.00004419e-06
1.00005973e-06
1.00008003e-06
1.0001066e-06
1.00014136e-06
1.00018666e-06
1.00024548e-06
1.00032145e-06
1.00041885e-06
1.00054254e-06
1.00069822e-06
1.0008925e-06
1.00113147e-06
1.00142097e-06
1.00176654e-06
1.00217115e-06
1.00263348e-06
1.00314689e-06
1.00369765e-06
1.00426374e-06
1.00481487e-06
1.00531479e-06
1.0057263e-06
1.00000303e-06
1.00000926e-06
1.00001608e-06
1.00002412e-06
1.00003413e-06
1.00004699e-06
1.00006379e-06
1.0000859e-06
1.00011506e-06
1.00015349e-06
1.00020398e-06
1.00027008e-06
1.00035618e-06
1.00046753e-06
1.00061035e-06
1.00079245e-06
1.00102224e-06
1.00130837e-06
1.00166022e-06
1.00208611e-06
1.00259176e-06
1.00317852e-06
1.0038407e-06
1.00456315e-06
1.00531837e-06
1.0060654e-06
1.0067521e-06
1.00732255e-06
1.00000313e-06
1.00000957e-06
1.00001664e-06
1.00002502e-06
1.00003551e-06
1.00004908e-06
1.00006692e-06
1.00009055e-06
1.00012194e-06
1.0001636e-06
1.00021878e-06
1.00029159e-06
1.00038722e-06
1.00051207e-06
1.00067418e-06
1.00088311e-06
1.00114951e-06
1.0014859e-06
1.00190603e-06
1.0024224e-06
1.00304499e-06
1.00377942e-06
1.00462343e-06
1.00556266e-06
1.0065651e-06
1.00757697e-06
1.00852383e-06
1.00932025e-06
1.00000317e-06
1.0000097e-06
1.00001689e-06
1.00002545e-06
1.00003623e-06
1.00005025e-06
1.0000688e-06
1.00009354e-06
1.00012661e-06
1.00017081e-06
1.00022979e-06
1.00030824e-06
1.00041222e-06
1.00054933e-06
1.00072917e-06
1.00096338e-06
1.00126619e-06
1.00165402e-06
1.00214458e-06
1.00275735e-06
1.00351057e-06
1.00441538e-06
1.00547551e-06
1.00668339e-06
1.0080065e-06
1.0093779e-06
1.01069325e-06
1.01181979e-06
1.00000314e-06
1.00000962e-06
1.00001677e-06
1.00002532e-06
1.00003615e-06
1.00005032e-06
1.00006916e-06
1.00009444e-06
1.00012844e-06
1.00017419e-06
1.00023567e-06
1.0003181e-06
1.00042827e-06
1.00057496e-06
1.00076933e-06
1.00102543e-06
1.00136064e-06
1.00179586e-06
1.00235491e-06
1.00306467e-06
1.00395237e-06
1.00504295e-06
1.00635533e-06
1.00789192e-06
1.0096273e-06
1.01148985e-06
1.01333995e-06
1.01496836e-06
1.00000304e-06
1.0000093e-06
1.00001624e-06
1.00002457e-06
1.00003517e-06
1.0000491e-06
1.00006774e-06
1.00009287e-06
1.00012686e-06
1.00017288e-06
1.00023514e-06
1.00031923e-06
1.00043253e-06
1.00058471e-06
1.00078836e-06
1.00105964e-06
1.00141904e-06
1.00189202e-06
1.00250941e-06
1.00330667e-06
1.00432382e-06
1.00560647e-06
1.00719829e-06
1.00912532e-06
1.01138495e-06
1.01392174e-06
1.01656979e-06
1.0189999e-06
1.00000285e-06
1.00000874e-06
1.00001528e-06
1.00002315e-06
1.00003321e-06
1.0000465e-06
1.00006436e-06
1.00008855e-06
1.00012144e-06
1.00016622e-06
1.00022716e-06
1.00031001e-06
1.00042246e-06
1.00057473e-06
1.00078035e-06
1.00105709e-06
1.00142803e-06
1.0019228e-06
1.00257884e-06
1.00344241e-06
1.0045713e-06
1.00603418e-06
1.00790735e-06
1.01027243e-06
1.01318915e-06
1.01665358e-06
1.02051511e-06
1.02428356e-06
1.00000259e-06
1.00000792e-06
1.00001386e-06
1.00002104e-06
1.00003025e-06
1.00004246e-06
1.00005893e-06
1.00008133e-06
1.00011193e-06
1.00015378e-06
1.00021103e-06
1.00028932e-06
1.00039625e-06
1.00054208e-06
1.00074061e-06
1.00101027e-06
1.00137565e-06
1.0018693e-06
1.00253424e-06
1.00342717e-06
1.00462299e-06
1.00621968e-06
1.00834287e-06
1.0111545e-06
1.01485111e-06
1.01957723e-06
1.02527333e-06
1.03128592e-06
1.00000224e-06
1.00000686e-06
1.00001202e-06
1.00001827e-06
1.00002632e-06
1.00003701e-06
1.00005148e-06
1.00007124e-06
1.00009832e-06
1.00013551e-06
1.00018661e-06
1.00025681e-06
1.00035319e-06
1.00048541e-06
1.00066661e-06
1.00091466e-06
1.00125383e-06
1.00171722e-06
1.00235019e-06
1.00321574e-06
1.00440299e-06
1.00604063e-06
1.0083173e-06
1.01150715e-06
1.01600117e-06
1.02229943e-06
1.03061622e-06
1.04004567e-06
1.00000182e-06
1.00000558e-06
1.00000979e-06
1.0000149e-06
1.00002149e-06
1.00003027e-06
1.00004219e-06
1.0000585e-06
1.00008091e-06
1.00011179e-06
1.00015436e-06
1.00021304e-06
1.00029393e-06
1.0004054e-06
1.00055893e-06
1.00077032e-06
1.00106133e-06
1.00146226e-06
1.00201578e-06
1.00278366e-06
1.00385859e-06
1.00538656e-06
1.00760825e-06
1.0109281e-06
1.01599175e-06
1.02370639e-06
1.03516767e-06
1.04798963e-06
1.00000134e-06
1.00000412e-06
1.00000724e-06
1.00001102e-06
1.00001591e-06
1.00002245e-06
1.00003132e-06
1.0000435e-06
1.00006027e-06
1.00008341e-06
1.00011538e-06
1.00015958e-06
1.00022066e-06
1.00030507e-06
1.00042172e-06
1.0005829e-06
1.00080571e-06
1.00111414e-06
1.0015425e-06
1.00214145e-06
1.00298948e-06
1.00421653e-06
1.00605347e-06
1.00893225e-06
1.01364966e-06
1.02137708e-06
1.03216722e-06
1.06053467e-06
1.00000069e-06
1.00000207e-06
1.00000351e-06
1.00000506e-06
1.00000679e-06
1.00000876e-06
1.00001102e-06
1.00001366e-06
1.00001672e-06
1.00002027e-06
1.00002437e-06
1.00002908e-06
1.00003444e-06
1.00004049e-06
1.00004723e-06
1.00005468e-06
1.00006279e-06
1.0000715e-06
1.00008073e-06
1.00009034e-06
1.00010016e-06
1.00011e-06
1.00011964e-06
1.00012882e-06
1.00013729e-06
1.00014481e-06
1.00015113e-06
1.00015606e-06
1.0000007e-06
1.00000211e-06
1.00000358e-06
1.00000517e-06
1.00000693e-06
1.00000895e-06
1.00001127e-06
1.00001398e-06
1.00001713e-06
1.00002079e-06
1.00002503e-06
1.00002991e-06
1.00003547e-06
1.00004176e-06
1.0000488e-06
1.00005657e-06
1.00006506e-06
1.0000742e-06
1.0000839e-06
1.00009403e-06
1.00010439e-06
1.0001148e-06
1.00012501e-06
1.00013475e-06
1.00014375e-06
1.00015175e-06
1.00015849e-06
1.00016375e-06
1.00000074e-06
1.00000224e-06
1.00000379e-06
1.00000547e-06
1.00000735e-06
1.0000095e-06
1.000012e-06
1.00001491e-06
1.00001832e-06
1.00002231e-06
1.00002695e-06
1.0000323e-06
1.00003843e-06
1.0000454e-06
1.00005323e-06
1.00006192e-06
1.00007146e-06
1.00008178e-06
1.00009277e-06
1.00010429e-06
1.00011614e-06
1.00012808e-06
1.00013983e-06
1.00015108e-06
1.00016151e-06
1.0001708e-06
1.00017865e-06
1.00018479e-06
1.00000081e-06
1.00000246e-06
1.00000417e-06
1.00000602e-06
1.00000811e-06
1.00001051e-06
1.00001331e-06
1.00001661e-06
1.00002049e-06
1.00002506e-06
1.00003041e-06
1.00003662e-06
1.00004379e-06
1.00005198e-06
1.00006124e-06
1.0000716e-06
1.00008302e-06
1.00009546e-06
1.0001088e-06
1.00012284e-06
1.00013738e-06
1.00015209e-06
1.00016664e-06
1.00018063e-06
1.00019365e-06
1.00020529e-06
1.00021514e-06
1.00022286e-06
1.00000092e-06
1.00000277e-06
1.0000047e-06
1.00000681e-06
1.0000092e-06
1.00001197e-06
1.00001522e-06
1.00001907e-06
1.00002365e-06
1.00002907e-06
1.00003546e-06
1.00004295e-06
1.00005165e-06
1.00006166e-06
1.00007306e-06
1.00008589e-06
1.00010015e-06
1.00011578e-06
1.00013264e-06
1.00015052e-06
1.00016912e-06
1.00018807e-06
1.00020689e-06
1.00022508e-06
1.00024207e-06
1.00025731e-06
1.00027024e-06
1.0002804e-06
1.00000105e-06
1.00000318e-06
1.00000541e-06
1.00000785e-06
1.00001063e-06
1.00001388e-06
1.00001774e-06
1.00002234e-06
1.00002784e-06
1.00003441e-06
1.00004222e-06
1.00005143e-06
1.00006222e-06
1.00007472e-06
1.00008907e-06
1.00010533e-06
1.00012354e-06
1.00014363e-06
1.00016545e-06
1.00018873e-06
1.00021311e-06
1.00023808e-06
1.00026302e-06
1.00028723e-06
1.00030995e-06
1.00033039e-06
1.00034779e-06
1.00036148e-06
1.00000122e-06
1.00000369e-06
1.00000628e-06
1.00000914e-06
1.00001241e-06
1.00001627e-06
1.00002089e-06
1.00002644e-06
1.00003313e-06
1.00004118e-06
1.00005082e-06
1.00006228e-06
1.00007579e-06
1.00009158e-06
1.00010982e-06
1.00013066e-06
1.00015415e-06
1.00018026e-06
1.00020881e-06
1.00023949e-06
1.0002718e-06
1.00030509e-06
1.00033853e-06
1.00037115e-06
1.00040189e-06
1.00042965e-06
1.00045335e-06
1.00047204e-06
1.00000142e-06
1.00000429e-06
1.00000732e-06
1.00001068e-06
1.00001456e-06
1.00001916e-06
1.0000247e-06
1.00003142e-06
1.00003959e-06
1.00004949e-06
1.00006143e-06
1.00007574e-06
1.00009273e-06
1.00011273e-06
1.00013602e-06
1.00016281e-06
1.00019325e-06
1.00022731e-06
1.00026483e-06
1.00030541e-06
1.00034845e-06
1.00039306e-06
1.00043812e-06
1.00048232e-06
1.00052415e-06
1.00056206e-06
1.00059454e-06
1.00062021e-06
1.00000165e-06
1.00000499e-06
1.00000853e-06
1.00001247e-06
1.00001706e-06
1.00002255e-06
1.0000292e-06
1.00003734e-06
1.0000473e-06
1.00005947e-06
1.00007425e-06
1.00009208e-06
1.00011343e-06
1.00013875e-06
1.00016846e-06
1.0002029e-06
1.00024231e-06
1.00028675e-06
1.00033607e-06
1.0003898e-06
1.00044716e-06
1.00050702e-06
1.00056786e-06
1.00062785e-06
1.0006849e-06
1.00073683e-06
1.00078145e-06
1.00081681e-06
1.00000191e-06
1.00000579e-06
1.00000991e-06
1.00001453e-06
1.00001993e-06
1.00002645e-06
1.00003442e-06
1.00004423e-06
1.00005633e-06
1.00007122e-06
1.00008944e-06
1.0001116e-06
1.00013833e-06
1.00017027e-06
1.00020803e-06
1.00025216e-06
1.00030306e-06
1.00036091e-06
1.00042559e-06
1.0004966e-06
1.00057298e-06
1.00065323e-06
1.00073533e-06
1.00081677e-06
1.00089464e-06
1.00096581e-06
1.0010272e-06
1.00107597e-06
1.00000219e-06
1.00000666e-06
1.00001144e-06
1.00001682e-06
1.00002316e-06
1.00003086e-06
1.00004034e-06
1.0000521e-06
1.00006671e-06
1.00008483e-06
1.00010717e-06
1.00013454e-06
1.00016782e-06
1.00020789e-06
1.00025566e-06
1.00031193e-06
1.00037736e-06
1.00045235e-06
1.00053688e-06
1.00063044e-06
1.00073186e-06
1.00083923e-06
1.00094986e-06
1.00106031e-06
1.00116653e-06
1.0012641e-06
1.00134857e-06
1.00141587e-06
1.00000252e-06
1.00000764e-06
1.00001311e-06
1.00001931e-06
1.0000267e-06
1.00003575e-06
1.00004695e-06
1.00006094e-06
1.00007846e-06
1.00010034e-06
1.00012753e-06
1.0001611e-06
1.00020223e-06
1.00025217e-06
1.00031219e-06
1.00038351e-06
1.00046715e-06
1.00056383e-06
1.00067378e-06
1.00079652e-06
1.00093071e-06
1.00107393e-06
1.00122266e-06
1.00137219e-06
1.00151691e-06
1.00165055e-06
1.00176675e-06
1.00185963e-06
1.00000286e-06
1.00000867e-06
1.00001489e-06
1.000022e-06
1.00003052e-06
1.000041e-06
1.0000541e-06
1.00007063e-06
1.00009149e-06
1.0001177e-06
1.0001505e-06
1.00019133e-06
1.00024175e-06
1.00030349e-06
1.00037834e-06
1.00046806e-06
1.00057424e-06
1.0006981e-06
1.00084026e-06
1.00100045e-06
1.00117718e-06
1.0013675e-06
1.0015668e-06
1.00176877e-06
1.00196561e-06
1.00214847e-06
1.00230822e-06
1.00243634e-06
1.0000032e-06
1.00000972e-06
1.00001675e-06
1.00002481e-06
1.00003451e-06
1.00004654e-06
1.00006174e-06
1.00008105e-06
1.00010557e-06
1.00013669e-06
1.00017596e-06
1.00022513e-06
1.00028636e-06
1.00036199e-06
1.0004545e-06
1.00056643e-06
1.00070014e-06
1.00085762e-06
1.00104017e-06
1.0012479e-06
1.00147938e-06
1.00173109e-06
1.00199714e-06
1.0022691e-06