/*--------------------------------*- C++ -*----------------------------------*\
| =========                 |                                                 |
| \\      /  F ield         | foam-extend: Open Source CFD                    |
|  \\    /   O peration     | Version:     4.1                                |
|   \\  /    A nd           | Web:         http://www.foam-extend.org         |
|    \\/     M anipulation  |                                                 |
\*---------------------------------------------------------------------------*/
FoamFile
{
    version     2.0;
    format      ascii;
    class       regIOobject;
    location    "0.65/uniform";
    object      profilingInfo;
}
// * * * * * * * * * * * * * * * * * * * * * * * * * * * * * * * * * * * * * //

profilingInfo
(

    {
        id              15;
        parentId        14;
        description     "Foam::Time::writeObject - outputTime";
        calls           13;
        totalTime       6.299087;
        childTime       0;
        onStack         1;
    }

    {
        id              14;
        parentId        1;
        description     "Foam::Time::writeObject";
        calls           13;
        totalTime       6.29919;
        childTime       6.299087;
        onStack         1;
    }

    {
        id              1;
        description     "application::main";
        calls           1;
        totalTime       50.392398;
        childTime       27.998319;
        onStack         1;
    }

    {
        id              13;
        parentId        1;
        description     "FO::forces::execute";
        calls           64;
        totalTime       0.172956;
        childTime       0;
        onStack         0;
    }

    {
        id              2;
        parentId        1;
        description     "functionObjectList::read";
        calls           1;
        totalTime       0.009657;
        childTime       0;
        onStack         0;
    }

    {
        id              7;
        parentId        1;
        description     "fvMatrix::solve_U";
        calls           130;
        totalTime       2.313574;
        childTime       2.183762;
        onStack         0;
    }

    {
        id              3;
        parentId        1;
        description     "fvMatrix::solve_cellMotionU";
        calls           130;
        totalTime       1.156082;
        childTime       1.037049;
        onStack         0;
    }

    {
        id              11;
        parentId        1;
        description     "fvMatrix::solve_p";
        calls           780;
        totalTime       18.04686;
        childTime       17.895431;
        onStack         0;
    }

    {
        id              8;
        parentId        7;
        description     "lduMatrix::solver_Ux";
        calls           130;
        totalTime       0.667559;
        childTime       0;
        onStack         0;
    }

    {
        id              9;
        parentId        7;
        description     "lduMatrix::solver_Uy";
        calls           130;
        totalTime       0.75157;
        childTime       0;
        onStack         0;
    }

    {
        id              10;
        parentId        7;
        description     "lduMatrix::solver_Uz";
        calls           130;
        totalTime       0.764633;
        childTime       0;
        onStack         0;
    }

    {
        id              4;
        parentId        3;
        description     "lduMatrix::solver_cellMotionUx";
        calls           130;
        totalTime       0.218588;
        childTime       0;
        onStack         0;
    }

    {
        id              5;
        parentId        3;
        description     "lduMatrix::solver_cellMotionUy";
        calls           130;
        totalTime       0.60573;
        childTime       0;
        onStack         0;
    }

    {
        id              6;
        parentId        3;
        description     "lduMatrix::solver_cellMotionUz";
        calls           130;
        totalTime       0.212731;
        childTime       0;
        onStack         0;
    }

    {
        id              12;
        parentId        11;
        description     "lduMatrix::solver_p";
        calls           780;
        totalTime       17.895431;
        childTime       0;
        onStack         0;
    }
);


// ************************************************************************* //
