/*--------------------------------*- C++ -*----------------------------------*\
| =========                 |                                                 |
| \\      /  F ield         | foam-extend: Open Source CFD                    |
|  \\    /   O peration     | Version:     4.1                                |
|   \\  /    A nd           | Web:         http://www.foam-extend.org         |
|    \\/     M anipulation  |                                                 |
\*---------------------------------------------------------------------------*/
FoamFile
{
    version     2.0;
    format      ascii;
    class       surfaceScalarField;
    location    "0.75";
    object      meshPhi;
}
// * * * * * * * * * * * * * * * * * * * * * * * * * * * * * * * * * * * * * //

dimensions      [0 3 -1 0 0 0 0];

internalField   nonuniform List<scalar> 
102656
(
-5.78241395e-21
2.56285401e-13
0
-1.15648328e-20
7.74123552e-13
5.78241873e-21
1.8373832e-28
1.31222262e-12
5.7824237e-21
-4.62593742e-20
1.89212921e-12
0
4.62594003e-20
2.53737391e-12
-2.93442806e-28
2.3129714e-20
3.27141558e-12
0
-4.62594636e-20
4.11785711e-12
-5.78245008e-21
4.62595006e-20
5.10048225e-12
-5.78245927e-21
3.17215935e-27
6.24308413e-12
0
-9.25191971e-20
7.56905848e-12
-5.78248235e-21
9.25193274e-20
9.10074086e-12
5.78249562e-21
9.25194678e-20
1.0858475e-11
5.78251311e-21
1.28809835e-26
1.28594152e-11
-1.48716863e-27
9.25198054e-20
1.51160852e-11
0
0
1.76347445e-11
-2.03942702e-27
0
2.04136448e-11
-5.78260247e-21
9.25204336e-20
2.34412955e-11
-5.78263078e-21
-9.25206818e-20
2.66948919e-11
-1.15653224e-20
9.25209721e-20
3.0139089e-11
5.78268994e-21
6.57752255e-26
3.37253191e-11
5.78272696e-21
0
3.73918476e-11
-4.32430105e-27
0
4.10647313e-11
1.15655865e-20
9.25220159e-20
4.4659784e-11
0
9.25223072e-20
4.8085567e-11
-5.78286129e-21
0
5.12473137e-11
-1.15657817e-20
0
5.40515813e-11
-5.7829171e-21
0
5.64113204e-11
-5.78293917e-21
5.82509913e-11
-6.73662414e-27
0
-3.02572316e-29
5.17917006e-13
-3.02572316e-29
2.31296659e-20
1.56425733e-12
-9.13775763e-29
-1.15648381e-20
2.65141156e-12
5.78242379e-21
0
3.82332565e-12
-5.78242963e-21
-4.62594013e-20
5.12806355e-12
-2.99608673e-28
-2.31297163e-20
6.61356247e-12
0
0
8.32811289e-12
5.78245045e-21
0
1.03204655e-11
5.78245978e-21
3.25177903e-27
1.26395092e-11
-7.39735253e-28
3.93173872e-27
1.53334636e-11
-5.78248328e-21
-4.62596693e-20
1.84485418e-11
0
5.61629836e-27
2.20270557e-11
0
1.32765905e-26
2.61049632e-11
5.78253237e-21
0
3.07089019e-11
0
9.25200335e-20
3.58528075e-11
5.78257983e-21
-9.25202791e-20
4.15342838e-11
-2.44256455e-27
-9.25205259e-20
4.7730966e-11
5.78263591e-21
9.25207898e-20
5.43971965e-11
-3.20372255e-27
-9.25210369e-20
6.14613906e-11
5.78270088e-21
-9.25212866e-20
6.88245115e-11
5.78273577e-21
0
7.63600676e-11
-1.15655476e-20
9.25218949e-20
8.3915987e-11
-5.78281236e-21
-9.25221269e-20
9.13186029e-11
0
-9.25225286e-20
9.83788007e-11
0
0
1.04900148e-10
0
1.85045854e-19
1.10688574e-10
5.78293479e-21
0
1.1556295e-10
5.78295802e-21
1.19365732e-10
5.78298323e-21
1.85046442e-19
5.78241414e-21
7.94627385e-13
0
1.15648335e-20
2.39994644e-12
0
3.46945174e-20
4.06823483e-12
-5.78242466e-21
2.31296907e-20
5.86807556e-12
-5.7824307e-21
-2.31297054e-20
7.87464263e-12
5.78243694e-21
0
1.01630468e-11
5.78244435e-21
0
1.28091752e-11
-5.1822694e-28
-4.62595229e-20
1.58899412e-11
-6.44100012e-28
4.62595708e-20
1.94828511e-11
-5.78247556e-21
4.62596342e-20
2.36648016e-11
-5.78248948e-21
-9.25193973e-20
2.85100276e-11
-1.16359304e-27
-9.25195614e-20
3.40871478e-11
1.15650459e-20
9.25197502e-20
4.04552982e-11
0
0
4.76594065e-11
5.78256813e-21
-9.25201874e-20
5.57247519e-11
0
-9.25204422e-20
6.46510638e-11
-5.78262776e-21
1.85041387e-19
7.44065366e-11
-5.78266106e-21
9.25210485e-20
8.49222696e-11
-5.7827006e-21
3.39858188e-26
9.6087747e-11
5.78273544e-21
-9.25216618e-20
1.07748053e-10
-5.78277565e-21
1.85043991e-19
1.19703516e-10
5.78281199e-21
-1.85044564e-19
1.31712408e-10
-5.78285315e-21
-1.85045304e-19
1.43497106e-10
0
-1.8504586e-19
1.54753869e-10
-5.78293244e-21
0
1.65165941e-10
-6.96963244e-27
1.85046831e-19
1.74419317e-10
5.78300044e-21
1.85047345e-19
1.82220048e-10
5.78302749e-21
1.88311692e-10
-5.78305662e-21
-1.85047637e-19
-5.78241442e-21
1.09821558e-12
-5.78241442e-21
0
3.31709079e-12
-1.15648403e-20
0
5.62446765e-12
-5.78242613e-21
0
8.11749662e-12
-1.1564865e-20
-6.93891306e-20
1.09029441e-11
0
-1.01920041e-27
1.40878377e-11
-5.78244828e-21
4.62594997e-20
1.77808266e-11
0
9.25190959e-20
2.20926924e-11
0
4.62596121e-20
2.71358748e-11
0
-4.62596724e-20
3.30228794e-11
-5.782498e-21
-1.38779267e-19
3.98634372e-11
-1.15650355e-20
0
4.77603235e-11
0
-9.25198989e-20
5.68037905e-11
-1.15651289e-20
0
6.70646668e-11
0
9.25204099e-20
7.85862993e-11
-2.64389753e-27
0
9.13756832e-11
5.78265535e-21
-9.25210402e-20
1.05394315e-10
0
3.51912129e-26
1.2054951e-10
-5.78274484e-21
0
1.36687112e-10
1.1565578e-20
0
1.5358666e-10
-5.30115381e-27
-9.2522577e-20
1.70960122e-10
-5.78288519e-21
-5.50372555e-26
1.88455208e-10
-5.78294904e-21
9.25233794e-20
2.05663986e-10
0
-9.25237548e-20
2.22137117e-10
0
0
2.37403371e-10
-5.78307918e-21
0
2.50993415e-10
0
1.85049433e-19
2.62466186e-10
0
2.71435602e-10
-9.61313316e-27
1.85049644e-19
0
1.44038122e-12
-3.95708488e-29
1.1564836e-20
4.35128903e-12
-1.19603199e-28
0
7.38141199e-12
-5.78242801e-21
-2.31297017e-20
1.06621824e-11
-2.94288407e-28
-2.31297186e-20
1.43384611e-11
5.78244331e-21
0
1.8556127e-11
-5.78245336e-21
4.62595269e-20
2.34641997e-11
1.73473935e-20
-4.62595847e-20
2.92157962e-11
-5.78247818e-21
-4.62596532e-20
3.59677296e-11
-5.78249416e-21
-4.62597342e-20
4.38785498e-11
-1.25543908e-27
4.62598362e-20
5.3104827e-11
1.15650693e-20
4.62599488e-20
6.37955086e-11
-5.78256153e-21
-1.94484543e-26
7.60842449e-11
-5.78259189e-21
-1.85040913e-19
9.00797e-11
5.78262417e-21
0
1.05854041e-10
0
9.25211733e-20
1.23430036e-10
0
-2.77564699e-19
1.42767487e-10
0
9.25220033e-20
1.63750021e-10
5.78281574e-21
-9.2522484e-20
1.86173606e-10
0
0
2.09738366e-10
0
-9.25234483e-20
2.34045422e-10
-7.29570339e-27
0
2.58600377e-10
-5.78306802e-21
7.46018454e-26
2.82824706e-10
0
8.07156829e-26
3.06075673e-10
-5.78318748e-21
0
3.27674449e-10
-5.78325649e-21
-1.85051937e-19
3.46941027e-10
1.15666082e-20
-1.85052587e-19
3.63233396e-10
5.78334314e-21
3.75987539e-10
-5.78337815e-21
-1.85053071e-19
-5.78241521e-21
1.83287056e-12
4.53906961e-29
-1.83771629e-28
5.5383069e-12
-1.37276511e-28
-1.15648458e-20
9.40077411e-12
0
0
1.35936322e-11
5.782439e-21
4.6259462e-20
1.83085489e-11
5.78244825e-21
2.31297556e-20
2.37396213e-11
5.78245945e-21
-4.62595662e-20
3.00866075e-11
-5.7824735e-21
4.62596396e-20
3.75566043e-11
5.78248861e-21
5.32699266e-27
4.63639069e-11
-1.15650164e-20
1.31218066e-26
5.67277475e-11
5.78253025e-21
1.38779824e-19
6.88676173e-11
0
-9.25201609e-20
8.29958832e-11
0
0
9.93074803e-11
-1.15652549e-20
9.25208592e-20
1.17966611e-10
-5.78267565e-21
0
1.39090623e-10
1.15654373e-20
-9.25217675e-20
1.62731568e-10
0
0
1.88856371e-10
0
-9.25228361e-20
2.1732702e-10
5.78290672e-21
6.09943796e-26
2.47882686e-10
5.78298193e-21
-9.25241203e-20
2.80126118e-10
0
7.78027167e-26
3.13516937e-10
-5.7831646e-21
9.25255836e-20
3.47374403e-10
0
0
3.80891806e-10
1.7349966e-20
1.85053871e-19
4.13163689e-10
-1.23845398e-26
0
4.43225741e-10
5.78349334e-21
-1.85055919e-19
4.70105435e-10
0
-1.85056784e-19
4.9287972e-10
5.78361039e-21
5.10734516e-10
-5.78367316e-21
0
1.15648316e-20
2.28753842e-12
5.78241579e-21
1.15648402e-20
6.9142915e-12
5.78242429e-21
-2.31296992e-20
1.17451066e-11
0
-2.31297207e-20
1.70050347e-11
1.73473297e-20
-4.62594895e-20
2.29437237e-11
-5.36049767e-28
6.93893206e-20
2.98156171e-11
-7.02678172e-28
-4.04209275e-27
3.78847674e-11
-9.01843413e-28
4.62596992e-20
4.74276476e-11
-5.78250274e-21
6.35377876e-27
5.87335681e-11
-1.43052946e-27
-9.25198425e-20
7.21022557e-11
1.15651072e-20
9.6807883e-27
8.78381701e-11
5.78258681e-21
4.62602609e-20
1.06241088e-10
0
0
1.27592532e-10
1.15653491e-20
1.8504269e-19
1.52137815e-10
-3.95183929e-27
-9.25219246e-20
1.80063765e-10
-1.15655899e-20
-9.25225433e-20
2.11472682e-10
0
-5.74754578e-26
2.46353659e-10
0
-1.85047868e-19
2.84553136e-10
-7.77458136e-27
1.85049584e-19
3.2574734e-10
-9.0049096e-27
9.25257138e-20
3.69420037e-10
5.78323711e-21
-9.25265353e-20
4.14849529e-10
-5.78337192e-21
1.85055034e-19
4.6110901e-10
1.73504028e-20
1.85056759e-19
5.07083853e-10
5.78357847e-21
-9.25292605e-20
5.51508144e-10
0
0
5.93020726e-10
-5.7838315e-21
3.70123164e-19
6.30238279e-10
5.78389251e-21
1.85063083e-19
6.61840057e-10
0
6.86656314e-10
-1.15680976e-20
1.85063974e-19
0
2.81630235e-12
5.78241647e-21
-2.48093079e-28
8.51567488e-12
0
-1.15648535e-20
1.44777388e-11
-5.78243714e-21
0
2.09913013e-11
-5.78244886e-21
-2.31297612e-20
2.83779117e-11
-5.7824624e-21
-1.8707754e-27
3.69676587e-11
0
4.62596752e-20
4.71061574e-11
5.78249675e-21
4.6259783e-20
5.91591174e-11
-5.78251993e-21
-4.62599005e-20
7.35137938e-11
-5.78254981e-21
-4.626005e-20
9.05766515e-11
-2.13653121e-27
-4.62602298e-20
1.10766735e-10
0
-4.62604589e-20
1.34503974e-10
0
0
1.62191654e-10
0
-9.25220345e-20
1.94192533e-10
5.78280021e-21
0
2.30798451e-10
0
9.25234697e-20
2.72193931e-10
0
-9.25244317e-20
3.18415082e-10
5.78307773e-21
9.25254327e-20
3.69306205e-10
5.78319514e-21
-9.25265264e-20
4.2447772e-10
-5.78334728e-21
-9.25275863e-20
4.83270286e-10
-1.316658e-26
0
5.44731071e-10
5.78361264e-21
0
6.07608564e-10
0
1.8506305e-19
6.70371891e-10
-1.15678812e-20
-1.85065141e-19
7.31258912e-10
5.78407405e-21
-1.85067563e-19
7.88354327e-10
-1.1568459e-20
-1.85069548e-19
8.39694822e-10
-5.78437312e-21
-1.85070769e-19
8.83393511e-10
0
9.17771566e-10
5.7845493e-21
0
0
3.43094687e-12
-5.78241733e-21
-1.15648465e-20
1.03786853e-11
1.15648576e-20
-2.31297183e-20
1.7662125e-11
-5.78244137e-21
4.6259495e-20
2.56482509e-11
0
-2.31297794e-20
3.47474895e-11
0
4.62596472e-20
4.538456e-11
-9.73399761e-28
-4.62597459e-20
5.80081887e-11
1.73475394e-20
4.62598767e-20
7.30984746e-11
0
9.11379218e-27
9.11701418e-11
-5.78257672e-21
4.62602164e-20
1.12770613e-10
-5.78261661e-21
1.85041741e-19
1.38472701e-10
5.78266756e-21
-3.51455866e-26
1.68860545e-10
0
-9.2522034e-20
2.04507444e-10
-5.78280753e-21
-9.25227899e-20
2.45944579e-10
0
0
2.93620073e-10
-5.78299955e-21
9.25246892e-20
3.47848649e-10
0
-9.25260271e-20
4.08753305e-10
5.78323638e-21
9.25272471e-20
4.76201951e-10
-5.78341238e-21
1.24798993e-25
5.49743756e-10
-5.78358446e-21
1.44026415e-25
6.28552127e-10
-5.78377196e-21
-1.85063457e-19
7.11383091e-10
5.78397215e-21
2.77600582e-19
7.96559068e-10
-1.15683402e-20
9.25350835e-20
8.81987811e-10
-2.4473007e-26
0
9.6522418e-10
-5.78460271e-21
-1.85076952e-19
1.04357806e-09
-1.7354376e-20
1.85079677e-19
1.11426526e-09
0
0
1.17459035e-09
0
1.22214314e-09
5.78522701e-21
-1.85083052e-19
-5.78241824e-21
4.14267102e-12
5.78241816e-21
0
1.25383143e-11
5.78243153e-21
0
2.13605706e-11
5.78244575e-21
-2.3129765e-20
3.10708811e-11
-6.27117597e-28
0
4.21889299e-11
5.78247945e-21
2.59220724e-27
5.52575574e-11
-1.14179467e-27
6.70114664e-27
7.08548627e-11
-1.48569514e-27
0
8.96066475e-11
-5.78256599e-21
1.08778269e-26
1.12192738e-10
1.1565214e-20
-4.6260388e-20
1.39345512e-10
3.07334007e-27
4.62606814e-20
1.7184266e-10
-1.15654437e-20
-4.62610204e-20
2.10491075e-10
1.73483938e-20
-9.25228025e-20
2.56099445e-10
-5.78289441e-21
0
3.09438045e-10
-5.78300587e-21
9.25249638e-20
3.71184313e-10
-8.97016723e-27
1.85052481e-19
4.41854038e-10
0
0
5.21719455e-10
-1.30643354e-26
0
6.10717635e-10
5.78365558e-21
-1.85062676e-19
7.083552e-10
-1.73516539e-20
9.2533483e-20
8.13618849e-10
5.78414467e-21
-9.25352595e-20
9.24904603e-10
5.78438652e-21
9.25377249e-20
1.03998111e-09
-1.15693826e-20
9.25397311e-20
1.15600289e-09
5.78497784e-21
-9.25425121e-20
1.26958698e-09
-5.78522688e-21
1.85088588e-19
1.37696045e-09
-5.78549532e-21
1.85092975e-19
1.47417619e-09
0
0
1.55738182e-09
-4.42691566e-26
1.62311381e-09
-5.78616686e-21
0
-1.73472576e-20
4.9604725e-12
0
-3.86187497e-28
1.50257805e-11
5.78243456e-21
-1.15648718e-20
2.56324679e-11
-5.78245154e-21
-2.31297839e-20
3.73507832e-11
-5.78247031e-21
0
5.08347754e-11
5.78249144e-21
-2.31298883e-20
6.67753977e-11
-5.7825193e-21
-4.62599292e-20
8.59106361e-11
-1.74117357e-27
-1.38780323e-19
1.09050187e-10
5.78259121e-21
-4.62603244e-20
1.37086976e-10
-5.78264447e-21
0
1.70993986e-10
-3.66009004e-27
9.25219015e-20
2.11819433e-10
-5.78278567e-21
-9.2522685e-20
2.60669777e-10
5.78287539e-21
9.25237157e-20
3.18676575e-10
5.78299731e-21
-9.25249207e-20
3.86945961e-10
-1.15662743e-20
-9.25264469e-20
4.66487366e-10
-1.10216295e-26
9.25280239e-20
5.58120651e-10
-1.34460282e-26
9.25299582e-20
6.62362447e-10
0
1.69720959e-25
7.79295314e-10
0
0
9.08426644e-10
-5.7842621e-21
-1.85074638e-19
1.04855009e-09
-2.71693824e-26
-1.85080157e-19
1.19762817e-09
0
3.0826663e-25
1.3527194e-09
-5.7853405e-21
9.2546316e-20
1.50997523e-09
-5.78572667e-21
0
1.66473034e-09
-4.56976309e-26
-1.85105191e-19
1.81170113e-09
1.15729158e-20
-1.85110337e-19
1.94529295e-09
5.78676917e-21
-1.85113672e-19
2.05999575e-09
-5.78711858e-21
2.15082586e-09
-5.78735358e-21
1.85117857e-19
-5.78242048e-21
5.89940236e-12
0
0
1.78772906e-11
-5.78243825e-21
-3.46946368e-20
3.05263203e-11
-1.15649147e-20
2.31298025e-20
4.45598596e-11
-8.33716945e-28
-4.62597195e-20
6.08022218e-11
-5.7825048e-21
-2.31299308e-20
8.01173518e-11
5.78253483e-21
4.62600349e-20
1.03431551e-10
5.78257345e-21
0
1.31788587e-10
2.62965576e-27
1.52202796e-26
1.66357825e-10
-5.78268545e-21
9.25217261e-20
2.08421111e-10
0
2.4595482e-26
2.59379876e-10
-5.50028115e-27
3.09804729e-26
3.20739822e-10
-6.94699436e-27
0
3.94070715e-10
-8.71919897e-27
0
4.80945384e-10
5.78328078e-21
9.25280953e-20
5.82847592e-10
-1.34568544e-26
0
7.01048555e-10
-1.65293593e-26
9.2532708e-20
8.36451239e-10
5.78402175e-21
-9.25355574e-20
9.89406388e-10
-5.784355e-21
-9.25387717e-20
1.15950609e-09
0
2.77627872e-19
1.34537193e-09
-5.78519143e-21
0
1.54446421e-09
-4.01109748e-26
0
1.75294723e-09
0
-1.85109204e-19
1.96565047e-09
-5.78667901e-21
2.77675935e-19
2.17616536e-09
0
0
2.37710676e-09
-1.15753475e-20
0
2.56054729e-09
5.78810202e-21
0
2.71859927e-09
-5.78857903e-21
2.84408084e-09
5.78882328e-21
0
-5.78242156e-21
6.96593385e-12
-5.78242156e-21
0
2.11131379e-11
5.78244147e-21
1.15648866e-20
3.60842e-11
-5.78246356e-21
-2.31298245e-20
5.27714519e-11
-5.78248933e-21
2.31298921e-20
7.21937353e-11
0
-4.62599421e-20
9.54173038e-11
1.15651059e-20
4.62601394e-20
1.23617537e-10
0
-4.62604079e-20
1.58141846e-10
5.7826551e-21
0
2.0048672e-10
5.78272699e-21
2.28194665e-26
2.52316005e-10
5.78281731e-21
9.25233255e-20
3.15499237e-10
0
-9.25244847e-20
3.92070266e-10
1.15661422e-20
-9.25261117e-20
4.84186076e-10
5.78324488e-21
-9.25280057e-20
5.94060893e-10
5.78345767e-21
0
7.23847199e-10
-1.63063553e-26
-9.25330154e-20
8.75474655e-10
5.78402489e-21
9.25360022e-20
1.05043929e-09
0
2.77619533e-19
1.24955078e-09
0
-9.25438435e-20
1.47263425e-09
-5.78534413e-21
1.85097758e-19
1.71821044e-09
-4.31181146e-26
-1.85107624e-19
1.98319165e-09
-5.07380524e-26
9.25600165e-20
2.26264407e-09
-5.78718479e-21
-9.25651664e-20
2.54967876e-09
5.78788076e-21
9.25701528e-20
2.83553626e-09
0
3.70304672e-19
3.10991996e-09
-1.15784628e-20
-1.8516204e-19
3.36160348e-09
-9.26407322e-26
0
3.57928554e-09
5.79037141e-21
3.75259837e-09
-1.05068446e-25
-1.85174651e-19
-1.38035781e-28
8.15951704e-12
-5.78242275e-21
0
2.47420893e-11
5.7824451e-21
-2.312979e-20
4.23362012e-11
-7.23032852e-28
0
6.20327074e-11
-5.7824982e-21
0
8.50731439e-11
-5.78253205e-21
-2.3130018e-20
1.12783697e-10
-1.73477201e-20
0
1.46654414e-10
5.78262445e-21
4.62605751e-20
1.88378084e-10
-5.78269451e-21
-9.25218751e-20
2.39860989e-10
-5.78278007e-21
5.31574535e-26
3.03287294e-10
1.15657715e-20
9.25240744e-20
3.81099663e-10
-5.78302569e-21
4.3529183e-26
4.75991828e-10
1.15663752e-20
9.25274169e-20
5.90918559e-10
0
-9.25298564e-20
7.28967361e-10
-1.15673342e-20
0
8.93220247e-10
-5.78399775e-21
0
1.0865521e-09
0
-9.25401598e-20
1.31134459e-09
0
-3.24973676e-25
1.56915474e-09
-5.78540476e-21
-9.25499632e-20
1.86028799e-09
-8.96629397e-26
4.68298842e-25
2.18332168e-09
0
-2.77689312e-19
2.53462923e-09
5.78744801e-21
9.25705719e-20
2.90797563e-09
0
-9.25766871e-20
3.2942794e-09
-8.61117482e-26
-9.25857776e-20
3.68164499e-09
9.78509776e-26
0
4.05576517e-09
0
0
4.40075689e-09
-5.79214177e-21
-2.1439637e-24
4.7004127e-09
0
4.93973401e-09
5.79352723e-21
0
-5.78242398e-21
9.48440678e-12
-5.78242398e-21
1.15648732e-20
2.87739615e-11
-5.78244929e-21
3.4694706e-20
4.92916026e-11
5.78247583e-21
2.31298708e-20
7.23566871e-11
1.15650151e-20
3.85413714e-27
9.94803002e-11
-5.78254635e-21
-2.31300598e-20
1.3230285e-10
-2.25735561e-27
-1.3720892e-26
1.72672389e-10
1.73479621e-20
0
2.22694771e-10
5.78272876e-21
2.35548564e-26
2.84806854e-10
-5.78282706e-21
-9.25234777e-20
3.61816966e-10
1.15659122e-20
4.62624933e-20
4.56899257e-10
-1.7349355e-20
-4.62633573e-20
5.73659131e-10
-5.78332609e-21
0
7.16039516e-10
1.44700174e-26
1.85063705e-19
8.88242737e-10
5.78388477e-21
-9.25354218e-20
1.09467132e-09
-1.15685731e-20
9.25393978e-20
1.33954072e-09
1.15695033e-20
9.25444158e-20
1.62651382e-09
5.78536322e-21
9.25507448e-20
1.95832191e-09
-5.78601113e-21
9.25577264e-20
2.33614642e-09
-5.78681283e-21
0
2.75891876e-09
0
-9.25745588e-20
3.22259125e-09
-5.78885373e-21
-9.25833807e-20
3.71946753e-09
5.79001027e-21
0
4.23774008e-09
5.79113671e-21
9.2603544e-20
4.76139113e-09
0
0
5.2706329e-09
5.79378687e-21
0
5.74302766e-09
-1.55231241e-25
0
6.1553081e-09
-5.79620244e-21
6.48571849e-09
-5.79688704e-21
-1.85271741e-19
0
1.09377538e-11
0
-1.15648788e-20
3.32001051e-11
-5.78245298e-21
1.15649095e-20
5.69393802e-11
-1.15649653e-20
2.31298942e-20
8.3738785e-11
-1.31631948e-27
4.27151322e-27
1.15421266e-10
-5.78256071e-21
2.31301065e-20
1.53984548e-10
0
4.62605337e-20
2.01696273e-10
-5.78268318e-21
0
2.61180263e-10
-5.78277178e-21
2.66332824e-26
3.35503263e-10
-5.78288614e-21
0
4.28219568e-10
-1.15660588e-20
4.62629591e-20
5.43458616e-10
5.78322206e-21
0
6.85939111e-10
-5.78347598e-21
0
8.60883715e-10
-5.78376803e-21
0
1.07406668e-09
0
-9.25384577e-20
1.33160612e-09
-2.74010901e-26
-3.09623426e-25
1.63948989e-09
-5.78522067e-21
-3.87454254e-25
2.00323687e-09
-5.78589601e-21
9.25579726e-20
2.42738479e-09
-5.78680418e-21
9.25663479e-20
2.914603e-09
-1.15756568e-20
9.25765642e-20
3.46469174e-09
0
0
4.07349484e-09
0
9.26017631e-20
4.7318137e-09
0
-2.77840319e-19
5.42457525e-09
-5.79352438e-21
9.26266951e-20
6.13045534e-09
-1.58329855e-25
-3.7056023e-19
6.82226165e-09
5.79676045e-21
-1.85308142e-19
7.46836958e-09
0
0
8.03533892e-09
-5.80001476e-21
8.49150082e-09
-1.16021524e-20
-1.85342008e-19
-5.7824263e-21
1.25112707e-11
0
0
3.79957503e-11
-1.15649129e-20
1.15649193e-20
6.52389698e-11
-5.78248921e-21
0
9.61227623e-11
-1.43218509e-27
2.31300242e-20
1.32824616e-10
5.78257239e-21
-2.3130158e-20
1.77751273e-10
5.78263122e-21
-4.62606625e-20
2.33660857e-10
0
0
3.03780511e-10
-4.92664341e-27
4.62617275e-20
3.9192018e-10
5.78293321e-21
-4.62623789e-20
5.02574115e-10
5.78309916e-21
4.6263488e-20
6.41019869e-10
-5.78331386e-21
4.6264692e-20
8.13325284e-10
0
9.2532416e-20
1.02640509e-09
5.78394258e-21
0
1.28810371e-09
0
-9.25420397e-20
1.60680751e-09
-5.78498891e-21
0
1.99081305e-09
1.73570239e-20
9.25553199e-20
2.44818119e-09
5.78657831e-21
-1.85129086e-19
2.98620037e-09
5.78757983e-21
0
3.60993685e-09
0
-9.25883429e-20
4.32089188e-09
-1.15808574e-20
0
5.11544622e-09
-1.15843357e-20
-9.26193149e-20
5.98310093e-09
-1.44709155e-25
-1.47980719e-24
6.90508927e-09
1.15923768e-20
0
7.85346379e-09
-5.79854453e-21
-1.85346606e-19
8.79119552e-09
5.80084719e-21
-1.85384687e-19
9.67387048e-09
5.80280719e-21
1.85414156e-19
1.04533694e-08
-5.80533189e-21
1.10833693e-08
0
0
-1.94210382e-28
1.41905907e-11
-1.94210382e-28
-7.96235435e-28
4.31175587e-11
-5.923281e-28
1.15649249e-20
7.4117092e-11
-5.78249463e-21
2.31299363e-20
1.09403186e-10
5.78253428e-21
2.31300536e-20
1.51549981e-10
5.78258678e-21
0
2.03426382e-10
5.78264888e-21
0
2.68352067e-10
0
-9.2522566e-20
3.50252621e-10
-5.3744173e-27
4.62619382e-20
4.53814469e-10
0
-1.38788253e-19
5.84635508e-10
5.78317049e-21
0
7.49364302e-10
-1.25298422e-26
-1.38795981e-19
9.55802277e-10
-5.78376237e-21
9.25344233e-20
1.21297521e-09
-2.1576504e-26
-9.25389211e-20
1.53120904e-09
-5.78468833e-21
1.85090035e-19
1.92171737e-09
0
9.25522968e-20
2.3961219e-09
1.15723674e-20
-5.37200871e-25
2.96631102e-09
5.78720355e-21
-9.25728334e-20
3.64313794e-09
-5.78856306e-21
8.48402423e-25
4.43505768e-09
0
9.2603595e-20
5.34683238e-09
-1.18648204e-25
-9.26212289e-20
6.37659913e-09
-5.79407429e-21
-9.26423334e-20
7.51316996e-09
5.79656106e-21
-1.83659623e-24
8.73399739e-09
0
9.2694096e-20
1.00032625e-08
-5.80254071e-21
0
1.12712074e-08
0
1.85474895e-19
1.24758112e-08
0
0
1.35477553e-08
5.81102744e-21
1.44188186e-08
5.8136425e-21
-1.85552599e-19
5.78242788e-21
1.59547967e-11
5.78242788e-21
8.37366992e-28
4.85020839e-11
-1.15649227e-20
0
8.34650694e-11
0
0
1.23420572e-10
-5.78254272e-21
-4.62601512e-20
1.7137868e-10
-5.78259712e-21
2.31302362e-20
2.30721393e-10
0
-1.96981372e-26
3.05399112e-10
0
4.62614074e-20
4.00131279e-10
5.78287276e-21
3.53527059e-26
5.20613586e-10
0
4.62631046e-20
6.73729391e-10
5.78323557e-21
4.62642882e-20
8.67756921e-10
-5.78352032e-21
-8.25656394e-26
1.1125547e-09
-1.81281402e-26
0
1.41970486e-09
2.39079186e-26
0
1.80257612e-09
0
-1.85096857e-19
2.27601019e-09
-4.09733386e-26
0
2.85616284e-09
0
-9.25686077e-20
3.55982233e-09
-6.86385334e-26
9.25831735e-20
4.40287875e-09
-8.78626816e-26
-9.25982412e-20
5.39926526e-09
-5.79143984e-21
1.85238956e-19
6.55864271e-09
5.79347783e-21
0
7.88257037e-09
5.79633821e-21
0
9.3607905e-09
0
-9.26988867e-20
1.09676699e-08
0
9.27365244e-20
1.26588169e-08
0
0
1.43687083e-08
-3.58220502e-25
1.855921e-19
1.60115459e-08
5.81551789e-21
-7.63999855e-24
1.748743e-08
5.81884455e-21
1.86949208e-08
-5.8224503e-21
0
-2.10648885e-28
1.77762588e-11
-5.78242862e-21
0
5.40652079e-11
5.78246298e-21
-1.37179443e-27
9.3137623e-11
-5.78250095e-21
2.31299645e-20
1.37958865e-10
0
4.62601872e-20
1.92008733e-10
-5.78260463e-21
2.31302558e-20
2.59227475e-10
-3.29667806e-27
4.62609478e-20
3.44259232e-10
0
0
4.52706566e-10
5.78290381e-21
-4.62622582e-20
5.91401245e-10
0
5.03047985e-26
7.68691094e-10
1.15665907e-20
9.25293978e-20
9.94735341e-10
0
-9.25328861e-20
1.28179042e-09
5.78397696e-21
1.85075329e-19
1.64445428e-09
1.15689808e-20
9.25439248e-20
2.09981195e-09
0
-9.2551474e-20
2.66738182e-09
-4.52614375e-26
-5.37466908e-25
3.3688824e-09
0
0
4.22730504e-09
1.15772461e-20
-9.25904867e-20
5.2658384e-09
5.79049183e-21
-9.26116593e-20
6.50647723e-09
0
-9.26334801e-20
7.96626434e-09
5.79542871e-21
-1.85330134e-19
9.65276612e-09
-5.79898639e-21
-9.2698316e-20
1.15593391e-08
-5.80299723e-21
-1.8547976e-19
1.36595088e-08
-5.80730483e-21
9.27797714e-20
1.59011603e-08
-3.74971282e-25
0
1.82007535e-08
5.81784924e-21
-1.85745222e-19
2.04414826e-08
0
-1.85824924e-19
2.24796306e-08
-1.16583109e-20
2.41623561e-08
-5.832973e-21
0
1.15648575e-20
1.96208786e-11
1.15648575e-20
-8.77307585e-28
5.97028275e-11
1.15649273e-20
1.15649359e-20
1.02953848e-10
-5.78250342e-21
2.31299703e-20
1.52746339e-10
5.78254823e-21
-4.62602066e-20
2.13055077e-10
0
-2.31302793e-20
2.88414073e-10
-1.15653695e-20
-2.13247705e-26
3.8421291e-10
-4.62057214e-27
-4.62616341e-20
5.07013286e-10
6.28047612e-27
-4.62623787e-20
6.64894655e-10
-5.78309978e-21
4.62635561e-20
8.67832177e-10
5.78334003e-21
-4.62649507e-20
1.12810208e-09
-5.7836606e-21
-4.62669681e-20
1.46069762e-09
-5.7840871e-21
0
1.88372184e-09
5.78462465e-21
-9.25455272e-20
2.41869857e-09
5.78536094e-21
0
3.09071247e-09
0
0
3.92826766e-09
-5.78758482e-21
-9.25803179e-20
4.96263944e-09
-8.50401228e-26
9.26010249e-20
6.22662535e-09
-1.11113311e-25
-9.26225417e-20
7.75263883e-09
0
1.66611502e-24
9.56927584e-09
5.79723562e-21
2.78066882e-19
1.16951434e-08
1.16028337e-20
-9.27327414e-20
1.41307787e-08
1.16123829e-20
9.27795917e-20
1.68529851e-08
-5.81231323e-21
-9.28433905e-20
1.98067565e-08
-1.16375106e-20
0
2.2891334e-08
-5.82633129e-21
-3.71838176e-19
2.59521189e-08
-2.61205975e-21
-1.86038724e-19
2.87839418e-08
-1.10198213e-20
3.11525733e-08
-5.13238442e-21
0
0
2.14488128e-11
-5.78242847e-21
8.70200197e-28
6.52930338e-11
-6.46497504e-28
3.46948027e-20
1.12700843e-10
-5.78250277e-21
2.31299691e-20
1.67460679e-10
0
5.67664757e-27
2.34056061e-10
0
-2.31302732e-20
3.17636585e-10
-3.37953182e-27
9.25220405e-20
4.24372052e-10
5.7827829e-21
0
5.61838075e-10
-6.3403899e-27
3.97232543e-26
7.39446878e-10
-8.62183282e-27
4.62637043e-20
9.68931439e-10
-1.15667168e-20
0
1.26488288e-09
-5.78369258e-21
4.62672353e-20
1.64532873e-09
-1.156826e-20
0
2.13232142e-09
0
0
2.75248031e-09
-5.78549862e-21
0
3.53739471e-09
0
-9.25695217e-20
4.52374883e-09
5.78791853e-21
-9.25860497e-20
5.75295937e-09
-9.13991023e-26
9.26085402e-20
7.27007538e-09
5.79206101e-21
-9.26333772e-20
9.12158366e-09
-5.79522938e-21
1.86342768e-24
1.13521512e-08
5.79910517e-21
9.27101759e-20
1.39970524e-08
0
1.85530708e-19
1.70727996e-08
-1.16199176e-20
9.28286237e-20
2.05696397e-08
5.8167822e-21
1.85799884e-19
2.44375902e-08
0
0
2.85657643e-08
3.25764269e-21
-1.86144879e-19
3.276214e-08
3.29398223e-21
-1.86329202e-19
3.67403799e-08
-1.75684321e-20
4.01348141e-08
-1.75979892e-20
1.8643476e-19
0
2.32157227e-11
0
-8.41908254e-28
7.06998968e-11
-1.15649237e-20
1.15649304e-20
1.22140245e-10
-1.09165014e-27
-2.31299598e-20
1.81738688e-10
5.78254353e-21
2.31300938e-20
2.54486949e-10
5.78260043e-21
0
3.46154485e-10
5.78267523e-21
0
4.6370357e-10
0
-4.62616259e-20
6.15749027e-10
-5.78291639e-21
-4.62624367e-20
8.13082203e-10
-5.78310115e-21
-4.62635736e-20
1.06927377e-09
0
-9.25302945e-20
1.40136241e-09
1.15673637e-20
0
1.83062471e-09
-5.78412546e-21
0
2.38340386e-09
5.78473383e-21
-3.60921322e-25
3.0919477e-09
-5.78559039e-21
0
3.99516768e-09
-5.78669803e-21
0
5.13917409e-09
1.15763481e-20
9.25875062e-20
6.57736591e-09
0
-9.26103416e-20
8.3697636e-09
1.15852893e-20
9.26431686e-20
1.05811638e-08
-1.15919873e-20
-9.26804394e-20
1.32776254e-08
-5.80044042e-21
-9.27325657e-20
1.65192416e-08
-5.80602774e-21
-9.27924453e-20
2.03519653e-08
5.81273642e-21
8.79356237e-24
2.47966586e-08
3.21275036e-21
9.29700112e-20
2.98269876e-08
-1.09633599e-20
-1.86151016e-19
3.53429104e-08
-8.36589677e-21
0
4.11344104e-08
-2.34407971e-20
0
4.68254723e-08
-2.35056194e-20
5.18380315e-08
-2.35645899e-20
0
5.7824271e-21
2.48745172e-11
5.78242691e-21
0
7.57788184e-11
0
0
1.31017609e-10
-5.78249464e-21
-3.69826457e-27
1.95190566e-10
-5.78253746e-21
-2.31300589e-20
2.73780538e-10
-2.23126945e-27
2.31302272e-20
3.73160317e-10
5.78265813e-21
-4.6260915e-20
5.01069488e-10
-4.32130242e-27
4.62614933e-20
6.67150441e-10
-5.7828929e-21
4.62623453e-20
8.83569784e-10
0
5.15592621e-26
1.16574752e-09
5.78330392e-21
-9.25299208e-20
1.53321022e-09
-5.78364637e-21
0
2.01057464e-09
-2.08108915e-26
9.25397736e-20
2.62865251e-09
0
9.25470364e-20
3.42564238e-09
0
9.25571881e-20
4.44833629e-09
0
0
5.75321189e-09
-7.10123854e-26
0
7.4072004e-09
5.79008558e-21
1.8522934e-19
9.48781872e-09
0
-9.26457895e-20
1.2082233e-08
-1.7359599e-25
9.26904764e-20
1.52846928e-08
0
-9.27442284e-20
1.91915951e-08
-3.09052957e-25
-1.85634146e-19
2.3894256e-08
-1.16307492e-20
-1.85832534e-19
2.94684578e-08
5.8249589e-21
9.30389234e-20
3.59547062e-08
-1.75183004e-20
-1.86386511e-19
4.33195097e-08
-2.92831918e-20
2.13048907e-23
5.13947102e-08
-1.17563723e-20
-1.87186296e-19
5.97550252e-08
-2.3610166e-20
6.75013237e-08
-5.92816741e-21
3.14217582e-23
1.73820883e-28
2.63775309e-11
5.78242547e-21
-7.17342781e-28
8.0383232e-11
-5.78245413e-21
1.1564917e-20
1.3907426e-10
-9.31737447e-28
2.31299152e-20
2.07418241e-10
0
4.62600688e-20
2.91354154e-10
-5.78257605e-21
-2.31301773e-20
3.97818661e-10
-5.78264241e-21
-4.626078e-20
5.35282667e-10
0
-4.6261342e-20
7.14362008e-10
-5.45993428e-27
-9.25241861e-20
9.48535595e-10
-7.51318124e-27
4.62632098e-20
1.2550019e-09
-1.15664846e-20
-6.55460558e-26
1.6557007e-09
5.78354456e-21
-4.6266567e-20
2.17852016e-09
-5.78396493e-21
0
2.85869783e-09
0
9.25454882e-20
3.74040445e-09
5.78535895e-21
-9.25557866e-20
4.87846852e-09
5.78633962e-21
0
6.34015221e-09
-1.15757467e-20
-9.25876491e-20
8.20682602e-09
-5.7898987e-21
-9.26101248e-20
1.05753208e-08
5.79259419e-21
9.26459201e-20
1.35586878e-08
5.79606537e-21
-9.26889614e-20
1.72861191e-08
-2.31461409e-25
1.85498482e-19
2.19019299e-08
0
-9.28269929e-20
2.75638576e-08
-8.38050952e-21
5.29480936e-24
3.44406806e-08
-2.51637636e-21
0
4.27078512e-08
-2.33806232e-20
0
5.25248893e-08
-1.76042186e-20
0
6.39364431e-08
-2.94955976e-20
0
7.66360418e-08
-1.78184971e-20
8.93197939e-08
-2.99272243e-20
-1.88637271e-19
5.78242361e-21
2.76789991e-11
0
-2.31297463e-20
8.43722336e-11
0
3.46947089e-20
1.46060878e-10
0
-2.31298829e-20
2.18036584e-10
-1.22799251e-27
0
3.06641337e-10
-1.7679357e-27
-4.6260225e-20
4.19312688e-10
5.78261029e-21
0
5.65174758e-10
-5.78268799e-21
4.62610899e-20
7.55717787e-10
0
0
1.00560646e-09
-6.60014452e-27
4.21639292e-26
1.33365644e-09
-5.7831482e-21
9.25279287e-20
1.76401717e-09
0
-4.62657603e-20
2.32759582e-09
5.78379038e-21
9.25361528e-20
3.06375139e-09
-4.7428164e-26
0
4.02227634e-09
-5.78505095e-21
-9.25521503e-20
5.26566438e-09
1.15720293e-20
-9.25646436e-20
6.87163655e-09
5.78732656e-21
-7.80132897e-25
8.93587423e-09
0
0
1.15749226e-08
-5.79177117e-21
2.93349777e-24
1.49293589e-08
-5.79508714e-21
-9.26776898e-20
1.91677073e-08
-2.17602351e-25
-3.70965855e-19
2.44924472e-08
3.21461536e-21
9.28271657e-20
3.11509756e-08
-8.35948783e-21
0
3.94561893e-08
-2.33160449e-20
-1.86275201e-19
4.98214064e-08
-1.16968031e-20
1.86864263e-19
6.28063042e-08
-2.35129384e-20
0
7.90994697e-08
-1.77687829e-20
-1.8903371e-19
9.90395231e-08
-1.19830729e-20
1.20883231e-07
-1.82283819e-20
0
0
2.87376509e-11
0
1.15648636e-20
8.76185924e-11
-5.78244195e-21
-2.31297758e-20
1.51751793e-10
-5.78246482e-21
0
2.26695859e-10
-5.7824926e-21
2.31299207e-20
3.19125695e-10
5.78252697e-21
0
4.36894469e-10
-2.03330185e-27
-4.62603595e-20
5.89670671e-10
5.78263808e-21