/*--------------------------------*- C++ -*----------------------------------*\
| =========                 |                                                 |
| \\      /  F ield         | foam-extend: Open Source CFD                    |
|  \\    /   O peration     | Version:     4.1                                |
|   \\  /    A nd           | Web:         http://www.foam-extend.org         |
|    \\/     M anipulation  |                                                 |
\*---------------------------------------------------------------------------*/
FoamFile
{
    version     2.0;
    format      ascii;
    class       volScalarField;
    location    "0.75";
    object      p;
}
// * * * * * * * * * * * * * * * * * * * * * * * * * * * * * * * * * * * * * //

dimensions      [0 2 -2 0 0 0 0];

internalField   nonuniform List<scalar> 
35840
(
79.3611715
64.7168737
55.6518975
51.3315445
48.3806636
46.0413335
44.2013101
42.6863883
41.3605521
40.1535324
39.0279575
37.9609165
36.9377365
35.9487418
34.9871419
34.0478585
33.1269281
32.2211733
31.3280175
30.4453704
29.5715426
28.7051906
27.8452745
26.9910219
26.1418977
25.2975757
24.4579129
23.6229226
72.4811697
62.0754359
54.8898593
51.1099969
48.3410328
46.0585364
44.2384976
42.7336857
41.4098449
40.1998275
39.0696421
37.9977504
36.9698942
35.9765932
35.0111396
34.0684551
33.1445372
32.2361688
31.340736
30.4561033
29.5805417
28.7126786
27.8514526
26.9960749
26.145997
25.300883
24.4605815
23.6250987
69.2905697
60.5264329
54.1725611
50.6708224
48.0862798
45.9295452
44.181663
42.7196196
41.4212398
40.225305
39.1022914
38.0335147
37.0063806
36.0124401
35.0456099
34.1011565
33.1752577
32.264786
31.3671686
30.4802957
29.6024558
28.7322867
27.8687378
27.0110358
26.1586526
25.3112764
24.4687836
23.63121
67.6735754
59.3381188
53.4397962
50.2133396
47.8207393
45.8030301
44.1431772
42.7333783
41.4651582
40.2853352
39.1696631
38.1030283
37.0750868
36.0787624
35.1087753
34.1608239
33.2312912
32.3171284
31.4157776
30.5251173
29.6434173
28.7693047
27.9017276
27.039923
26.1833875
25.331847
24.4852266
23.6436191
66.5729668
58.3702056
52.7655208
49.7811778
47.5592889
45.6698666
44.1014145
42.7514374
41.5203555
40.3623134
39.258189
38.196483
37.1693343
36.1713041
35.1981525
34.246206
33.3122035
32.3932794
31.4869571
30.59114
29.7040979
28.8244553
27.9511635
27.0834762
26.2209246
25.3632879
24.5105619
23.6629246
65.7754117
57.6436553
52.2096945
49.3895815
47.2979976
45.5158193
44.0321407
42.7439635
41.5556711
40.4262305
39.3403777
38.2895644
37.2681524
36.272309
35.2989106
34.3450355
33.407913
32.4849851
31.5739611
30.6728503
29.779989
28.8940474
28.0140166
27.1392004
26.269197
25.4038725
24.54333
23.6878726
65.1763568
57.0855591
51.7503619
49.0392337
47.045961
45.3504684
43.9396777
42.7088817
41.5638516
40.466173
39.4030417
38.3679824
37.3570418
36.3676922
35.3977815
34.4450915
33.5073489
32.5823397
31.6680055
30.762513
29.8643108
28.9721533
28.0851108
27.2025751
26.3242491
25.450127
24.5804649
23.7157411
64.7100791
56.6436021
51.3695083
48.7326125
46.8127998
45.1856321
43.8349839
42.6543251
41.5495816
40.4835206
39.4447322
38.4280643
37.4307145
36.4510953
35.4877912
34.5391446
33.6032988
32.6783419
31.7624299
30.8538867
29.9512779
29.0534526
28.1595777
27.2691547
26.3820202
25.4983328
24.6185467
23.7433696
64.3384241
56.2877517
51.0537968
48.4683126
46.6029512
45.0290574
43.7273245
42.5893819
41.5207123
40.4844277
39.469796
38.4724379
37.490282
36.5223681
35.5677925
34.6253006
33.6933418
32.770229
31.8542805
30.943939
30.0378575
29.1349656
28.2345193
27.3361324
26.4397895
25.5458418
24.6549829
23.7682049
64.037641
55.9978561
50.7914114
48.2423473
46.4176686
44.8854164
43.6233944
42.5215119
41.4845687
40.4755682
39.4839974
38.505862
37.5395079
36.584356
35.6398254
34.70492
33.7782842
32.8583684
31.9435852
31.0324368
30.1236174
29.2161003
28.3092044
27.4026421
26.4965481
25.591487
24.6884336
23.7887233
63.7918731
55.7598913
50.5730374
48.0505037
46.2566915
44.757241
43.5275624
42.456072
41.4468331
40.4625146
39.4925436
38.533045
37.5825524
36.6406773
35.7070057
34.7806732
33.8604132
32.9447268
32.0320419
31.120849
30.209823
29.2979272
28.3844999
27.4693247
26.5526784
25.6353545
24.7186508
23.804318
63.5900645
55.5638809
50.3914756
47.8888136
46.1188511
44.6455407
43.4424087
42.3966371
41.4115912
40.4495129
39.4996149
38.5579698
37.6231368
36.6947734
35.7725071
34.8554936
33.9424593
33.0318661
32.12207
31.21147
30.2986442
29.3824738
28.4622547
27.5377949
26.6094918
25.6783778
24.7461228
23.8149797
63.4241988
55.402465
50.2410567
47.7536871
46.002533
44.5503724
43.3692829
42.3454589
41.3816498
40.4396556
39.5084023
38.5838085
37.6643503
36.7496264
35.8392053
34.9321707
34.0271519
33.1224789
32.2163449
31.3069632
30.3927185
29.4723147
28.5449176
27.61029
26.6689085
25.7220457
24.7717959
23.8210254
63.2882464
55.270028
50.1172382
47.6419553
45.9059629
44.4712206
43.3087026
42.3038313
41.3588377
40.4351077
39.5212597
38.6130062
37.7086732
36.8077277
35.9096052
35.0132408
34.1170815
33.2192356
32.3176349
31.4101974
30.4949953
29.5704302
28.6354159
27.6895647
26.7333607
25.7682986
24.7969533
23.8229435
63.1775177
55.1621511
50.0163066
47.5508312
45.8273421
44.4072275
43.2606234
42.2723591
41.3442457
40.4373037
39.5398552
38.6473888
37.7580451
36.8711151
35.9858508
35.1009738
34.2146743
33.3247516
32.4287702
31.5242263
30.6087324
29.6802248
28.7371961
27.7789494
26.805856
25.8195818
24.8232323
23.8213554
63.08825
55.075254
49.9351568
47.4778471
45.7649081
44.3573321
43.2246183
42.2511475
41.338403
40.4470988
39.5652911
38.6882508
37.8139245
36.9414096
36.0697392
35.1973741
34.3221868
33.4415834
32.5526493
31.6523146
30.7375527
29.8056212
28.8543562
27.8825168
26.8901629
25.8790193
24.8527519
23.8170556
63.0173351
55.0063535
49.8711329
47.420792
45.7169568
44.3203516
43.199993
42.2399298
41.3414003
40.4648754
39.5981873
38.736416
37.8773297
37.0198294
36.1627161
35.3041653
34.4416843
33.5722106
32.6922366
31.7979653
30.8855135
29.9511854
28.9918358
28.005332
26.9911
25.9507026
24.88834
23.8111124
62.9621357
54.9528994
49.8219122
47.3776562
45.6818428
44.2950251
43.1858572
42.2381497
41.3529715
40.4906131
39.6387372
38.7922768
37.948849
37.1071784
36.2658484
35.4227461
34.5749886
33.7189853
32.8505283
31.9649197
31.0571649
30.1222652
29.155651
28.1537861
27.1149462
26.0401198
24.9338892
23.8050431
62.9203592
54.9126598
49.7854213
47.3465859
45.6579716
44.2800366
43.1811684
42.2450161
41.3725456
40.5239362
39.6867442
38.8558041
38.0286283
37.2038141
36.3797665
35.5541124
34.7235844
33.8840335
33.0304642
32.1571074
31.2575701
30.3251187
29.3531655
28.3360283
27.270011
26.1547842
24.9948966
23.8010803
62.889971
54.8836421
49.7597761
47.325848
45.64379
44.2740273
43.1847587
42.2595336
41.3992852
40.5641485
39.7416334
38.9265392
38.1163449
37.3095919
36.5045789
35.6987389
34.8884719
34.069089
33.2347647
32.378515
31.4922527
30.567002
29.5933849
28.5625168
27.4674433
26.3051944
25.0793311
23.8025889
62.8691361
54.8640389
49.7432407
47.3138058
45.6377791
44.2756035
43.1953483
42.2805354
41.4321182
40.6102457
39.8024522
39.0035816
38.2111671
37.4237918
36.639757
35.8564189
35.0699592
34.2752431
33.4656537
32.6329208
31.7670058
30.8561443
29.8872143
28.8466742
27.7223477
26.5063585
25.1992525
23.8151449
62.8561816
54.8521923
49.7342003
47.3089035
45.6384518
44.2833346
43.2115761
42.3067114
41.4697511
40.6609272
39.8678764
39.0855735
38.3117088
37.5450326
36.7839989
36.0260631
35.2673859
34.5025876
33.7244302
32.923433
32.0874749
31.2015014
30.2475584
29.2055255
28.0550818
26.7796594
25.3728566
23.8480445
62.8495827
54.8465716
49.7311471
47.309659
45.6443461
44.295788
43.2320257
42.3366195
41.51069
40.71462
39.9362211
39.1706901
38.4159906
37.6711888
36.9350828
36.2054677
35.4787784
34.7497348
34.0108452
33.2517417
32.45837
31.6121256
30.6891795
29.6604674
28.4932264
27.1556446
25.626295
23.9125248
62.8479583
54.8457651
49.7326617
47.3146787
45.6540594
44.3115507
43.2552309
42.3687147
41.5532797
40.7695122
40.0054664
39.2566509
38.5214233
37.7993296
37.0897344
36.3910741
35.7004575
35.0132189
34.3222413
33.6169718
32.8820755
32.0957347
31.2277545
30.2379664
29.0759833
27.6844872
26.0097589
24.0352622
62.8500048
54.8484902
49.7374576
47.3226525
45.6662575
44.3292295
43.279712
42.4013978
41.5957519
40.8236045
40.073309
39.3407645
38.6248343
37.9257061
37.2435459
36.5777712
35.9266528
35.2868247
34.6524768
34.0140701
33.3563889
32.6557392
31.876267
30.9656417
29.8516607
28.4410198
26.6271529
24.3256636
62.8545281
54.8536028
49.7443844
47.3323612
45.6796779
44.347492
43.3040249
42.4330675
41.6362889
40.874786
40.1372482
39.4200204
38.7225575
38.0458232
37.390997
36.7588114
36.1492209
35.5609647
34.9907579
34.4318525
33.8715803
33.2873049
32.6400785
31.8651346
30.8605308
29.474737
27.527298
24.8030562
62.8605173
54.8600965
49.7524049
47.3427214
45.6931788
44.3651083
43.3268109
42.4621855
41.6731054
40.9209354
40.1947095
39.4912384
38.8106074
38.1546314
37.5256437
36.9259447
36.3576206
35.8222991
35.3205691
34.8507568
34.406513
33.9722232
33.5141759
32.9636003
32.1847362
30.9160992
28.7453442
24.8820396
62.8671281
54.8671169
49.7606369
47.3528073
45.7057695
44.3809938
43.3468525
42.4873495
41.7045441
40.9600452
40.2432066
39.5512777
38.8849481
38.2468678
37.6405355
37.0698953
36.5393746
36.0539709
35.61917
35.2404743
34.9221369
34.6642225
34.4557516
34.2590625
33.9727076
33.3416443
31.6761505
26.3284241
72.6404008
62.1983172
54.962645
51.1341897
48.3295399
46.0222063
44.1855019
42.6713049
41.3440808
40.1350022
39.0085449
37.9419575
36.9200926
35.9328735
34.9732351
34.0359132
33.1168332
32.2127663
31.3211198
30.4398016
29.5671303
28.701773
27.8427005
26.98915
26.1405944
25.2967147
24.457374
23.6225917
64.9206748
59.5264285
54.6055616
51.3317327
48.6610279
46.3484042
44.4539516
42.8829328
41.5103833
40.2661565
39.1135394
38.0277709
36.9914496
35.9929306
35.0242125
34.0794376
33.1541342
32.2448086
31.3486845
30.4635345
29.587575
28.719396
27.8579089
27.0023047
26.1520196
25.3067047
24.4661983
23.6304978
61.6802883
58.1771273
54.184259
51.114127
48.5799509
46.3722223
44.5188181
42.9574033
41.5850973
40.3371458
39.1791775
38.0880059
37.046721
36.0436974
35.0708833
34.1223551
33.1935665
32.2809584
31.3817048
30.4935436
29.6146673
28.7436502
27.8793961
27.0210963
26.1681946
25.3203558
24.4774368
23.6394571
60.1038089
57.0211868
53.507695
50.71783
48.3729404
46.3056607
44.5362038
43.0179503
41.6667799
40.4272466
39.270083
38.175794
37.1297176
36.1213486
35.1431596
34.1894493
33.2557267
32.338405
31.434601
30.5419922
29.6587199
28.7833221
27.9146828
27.0519904
26.1947022
25.3425113
24.4953151
23.6531831
58.9978843
56.0220422
52.8231037
50.3036578
48.1326623
46.1891299
44.5081745
43.0477025
41.7322152
40.5135169
39.3670154
38.2766725
37.2303994
36.2194019
35.2372138
34.2787676
33.339926
32.4172779
31.5080115
30.6098215
29.7208432
28.8396049
27.9649887
27.0961956
26.2327136
25.3742854
24.5208754
23.6726344
58.1905127
55.276995
52.2570081
49.9159159
47.8753961
46.033979
44.4350493
43.0355021
41.7628492
40.5735564
39.4464554
38.3680203
37.3282359
36.3199303
35.3378023
34.3775857
33.4356778
32.50901
31.5949806
30.6914099
29.7965107
28.9088653
28.0274042
27.1513841
26.2803639
25.4141759
24.5528941
23.6967956
57.5833725
54.7054385
51.7852088
49.5609265
47.6211696
45.8646161
44.3369079
42.9939078
41.7642452
40.6070634
39.5034893
38.4417394
37.4132804
36.4121825
35.4341087
34.4755079
33.5332961
32.6047714
31.6875854
30.7797324
29.8795482
28.985712
28.0972433
27.2134937
26.3341337
25.4591294
24.5887123
23.723339
57.1101172
54.2526164
51.393214
49.2485766
47.3853352
45.6968191
44.2282869
42.9347606
41.7450098
40.6194182
39.5404886
38.4976022
37.4832378
36.4923405
35.5212856
34.5670741
33.6270399
32.6987903
31.7802009
30.8694282
29.9649309
29.0654917
28.1702317
27.2786176
26.3904583
25.5058895
24.6253453
23.7495163
56.732786
53.8886109
51.0690372
48.9794256
47.1731089
45.5381791
44.1182174
42.8671128
41.7132261
40.6173315
39.5626426
38.5392585
37.5403174
36.5613533
35.5992377
34.6513677
33.7153808
32.7891102
31.8705953
30.9581105
30.0502062
29.1457475
28.2439462
27.3443831
26.447018
25.5521816
24.6605509
23.7731055
56.4275534
53.5926034
50.8002331
48.7494803
46.985764
45.3930681
44.012886
42.7978177
41.6756031
40.6069599
39.5753623
38.5712797
37.5882362
36.6221289
35.6701462
34.7299417
33.7993474
32.8763351
31.9590356
31.0457829
30.1351702
29.2261057
28.317863
27.4101209
26.5029896
25.5970156
24.6931602
23.7927473
56.1783325
53.3499934
50.576952
48.5544623
46.8230916
45.2638331
43.9162406
42.7316756
41.6372026
40.5932574
39.5832898
38.5978884
37.6307527
36.6779636
35.7368759
34.8052755
33.8810859
32.9623277
32.0471458
31.1338644
30.2210557
29.3076151
28.3928343
27.4764635
26.5587547
25.6404826
24.722932
23.8078453
55.9738479
53.1504108
50.3916027
48.3902575
46.6838667
45.1513229
43.8305781
42.6719032
41.6017084
40.5800496
39.5901932
38.6226806
37.6712341
36.7319804
35.8023169
34.8800535
33.9631065
33.0494559
32.1371764
31.2244998
30.3098996
29.3921872
28.4706095
27.5449383
26.6155435
25.6834381
24.7502792
23.8183144
55.8058983
52.9862071
50.238212
48.253117
46.5664034
45.0554996
43.7570989
42.6205614
41.5717077
40.5701929
39.5990234
38.6485941
37.7125461
36.7869501
35.8691487
34.9568814
34.0479666
33.1402541
32.2316569
31.3202193
30.4042191
29.4822868
28.5535354
27.6176869
26.6751868
25.7272851
24.7760634
23.8243848
55.6683052
52.8515564
50.1120167
48.1397463
46.4688725
44.9757964
43.6962455
42.5788469
41.5489169
40.56573
39.6120087
38.67795
37.757049
36.8452502
35.9397666
35.0381887
34.1381554
33.2372982
32.3332677
31.423811
30.5068898
29.5808277
28.6444799
27.6974109
26.7400668
25.7739146
24.8015138
23.8264828
55.5562634
52.7418876
50.0091452
48.047264
46.3894319
44.9113242
43.6479356
42.5473179
41.5343732
40.5680379
39.6307585
38.7125163
37.8066278
36.908866
36.0162608
35.1261937
34.2360527
33.3431611
32.4448012
31.5382961
30.6211441
29.6911974
28.7468809
27.7874393
26.8131943
25.8257734
24.8282612
23.8252067
55.4659224
52.6535095
49.9263788
47.9731316
46.3262863
44.8610028
43.6117238
42.5260593
41.5285831
40.5779476
39.6563509
38.7535661
37.8627209
36.9793949
36.100406
35.2228837
34.3439009
33.4603885
32.56915
31.6669415
30.7506175
29.8173436
28.8648753
27.8918966
26.8983974
25.8860452
24.8584713
23.8213711
55.3941082
52.5833589
49.8609795
47.9150862
46.2777067
44.8236368
43.5869072
42.5147963
41.5316294
40.5958336
39.6894008
38.8019188
37.9263364
37.0580465
36.1936454
35.3299821
34.4637668
33.591466
32.709293
31.8132763
30.8994096
29.9638947
29.0034882
28.0159553
27.0006194
25.9589495
24.8950826
23.8161145
55.338135
52.5288271
49.8105657
47.8710803
46.2420296
44.7979569
43.5725916
42.512971
41.5432452
40.6216785
39.730104
38.8579614
37.9980598
37.1456281
36.2970503
35.448892
34.5974806
33.7387614
32.8682528
31.9810848
31.0721369
30.1362962
29.1688706
28.1661823
27.1263481
26.050198
24.9421935
23.8110972
55.2956749
52.4876404
49.773022
47.8392328
46.2176473
44.7826417
43.5677327
42.5197935
41.5628663
40.6551117
39.7782589
38.9216633
38.0780422
37.2425015
36.4112543
35.580615
34.7465378
33.90442
33.0490027
32.1743526
31.2739521
30.3409431
29.3685841
28.3509926
27.2842219
26.1676674
25.0056447
23.8087963
55.2646685
52.4577769
49.7464348
47.8177919
46.2029977
44.776329
43.5711641
42.5342775
41.5896597
40.6954297
39.8332883
38.9925708
38.1659632
37.3485231
36.5363679
35.7256312
34.9119485
34.0901942
33.254298
32.3971296
31.5104889
30.5852712
29.6119106
28.5812387
27.4859017
26.3224476
25.0939552
23.8128999
55.2432639
52.4374089
49.7290484
47.8051084
46.1965563
44.7776247
43.5816177
42.5552576
41.6225441
40.7416251
39.8942442
39.0697838
38.2609899
37.462972
36.671863
35.8837348
35.094025
34.2971876
33.4863925
32.6532578
31.7876632
30.8777296
29.9101194
28.8709044
27.7472946
26.5305735
25.2202608
23.8297437
55.2297755
52.4248663
49.7192366
47.7996203
46.196835
44.7851136
43.5977293
42.5814117
41.6602217
40.7924003
39.9598004
39.1519415
38.3617335
37.5844637
36.8164324
36.0538303
35.2921011
34.5254913
33.7465992
32.9458933
32.1112377
31.227514
30.2765505
29.237724
28.0897816
26.8147684
25.404311
23.8702514
55.222655
52.41861
49.7154883
47.7998504
46.2023857
44.7973571
43.6180658
42.6112935
41.7012004
40.8461796
40.0282691
39.2372157
38.4662095
37.7108651
36.9678431
36.2336977
35.504182
34.7736937
34.034651
33.2767357
32.4860026
31.6439097
30.7264805
29.7040255
28.5422711
27.2068462
25.6721888
23.9431218
55.2204836
52.4172191
49.7163912
47.8044022
46.2117975
44.8129206
43.6411591
42.6433594
41.7438228
40.9011488
40.0976271
39.323321
38.5718209
37.8392329
37.1228019
36.4197502
35.7265472
35.0382716
34.3478188
33.6448372
32.9143113
32.1347513
31.2760921
30.2975973
29.1468434
27.7620054
26.078701
24.0724204
55.2219909
52.4194187
49.7206533
47.8119553
46.2237175
44.8304118
43.6655317
42.6760098
41.7863194
40.9553062
40.1655668
39.407559
38.6753845
37.965802
37.2768751
36.6068355
35.9533617
35.3129113
34.6798163
34.0449448
33.3937098
32.7031708
31.938056
31.0458587
29.9526511
28.559719
26.7417738
24.3994164
55.2260476
52.4240777
49.7271136
47.8212925
46.2368875
44.8485022
43.6897422
42.7076442
41.8268716
41.0065381
40.2295826
39.4869114
38.7732222
38.086058
37.424511
36.7881539
36.1763957
35.5878842
35.019628
34.4655468
33.914024
33.3437453
32.7168272
31.9680633
30.9916488
29.6198128
27.6436023
24.8347213
55.2316567
52.4301926
49.7347391
47.8313365
46.2501713
44.865966
43.7124346
42.7367252
41.863693
41.0527205
40.2870953
39.5581906
38.8613362
38.1949318
37.5592325
36.9553974
36.3850046
35.8496678
35.3504256
34.886587
34.4534559
34.0377069
33.6082903
33.0973085
32.3617124
31.0897302
28.7761559
24.3536389
55.2379776
52.4369143
49.7426549
47.8411682
46.2625839
44.8817231
43.7323942
42.7618517
41.8951261
41.0918439
40.3356149
39.6182497
38.9356815
38.2871448
37.6740608
37.0992364
36.5666059
36.0811942
35.6490468
35.2769277
34.9713548
34.7361176
34.5665718
34.4348706
34.2513504
33.7456953
32.1478528
25.75187
69.7232254
60.9148098
54.4770663
50.8727065
48.1962163
45.9634869
44.1551946
42.6490532
41.3217053
40.1091229
38.978736
37.9091461
36.885531
35.8977509
34.938531
34.002349
33.0848898
32.1827339
31.2931492
30.4139468
29.543381
28.680078
27.822982
26.9713126
26.1245308
25.2823085
24.4445014
23.6111226
61.9669966
58.4623671
54.4414953
51.3173939
48.7227223
46.4596744
44.5600345
42.9629957
41.5651992
40.3000212
39.1310818
38.0335485
36.9892193
35.9854764
35.0135364
34.0669532
33.1408146
32.2313096
31.3354426
30.4508386
29.5756142
28.708291
27.8477327
26.9930958
26.1437907
25.2994481
24.4598886
23.6250943
58.7244193
57.2292648
54.2320747
51.2944976
48.8062924
46.6292412
44.7392729
43.1167787
41.6936888
40.4086851
39.2238736
38.1138621
37.0598106
36.0482791
35.0698798
34.117786
33.1868211
32.2729848
31.373151
30.4848569
29.6061599
28.7355426
27.8718441
27.0142092
26.1620456
25.3149896
24.4728732
23.6356944
57.1683909
56.1066154
53.6244413
50.9870528
48.6919226
46.6546596
44.838415
43.2420657
41.8244813
40.5362769
39.343682
38.2241438
37.1606049
36.1402689
35.1538643
34.1945299
33.2569898
32.3371113
31.4316371
30.5379919
29.6541452
28.7785154
27.9099022
27.0474318
26.1905141
25.3388037
24.4921655
23.6506405
56.0656108
55.1053685
52.9566296
50.6144261
48.5005027
46.585012
44.8526179
43.3071692
41.918203
40.6453424
39.4594743
38.340995
37.2750904
36.2504313
35.2586134
34.2933
33.3495246
32.4233107
31.5114612
30.6114097
29.7211131
28.8389741
27.9637844
27.094678
26.2310909
25.3727236
24.5195048
23.6715535
55.2535
54.3529663
52.3918693
50.2420765
48.2628239
46.4477435
44.7957106
43.3092267
41.9605632
40.7149806
39.5471779
38.4398418
37.3799885
36.3577539
35.3657789
34.398452
33.4513129
32.5207276
31.6037197
30.6978625
29.801203
28.9122091
28.02973
27.1529623
26.2814184
25.4148936
24.5534297
23.6972761
54.6396077
53.7722959
51.9131111
49.8873508
48.0126746
46.2827395
44.7019644
43.272015
41.965796
40.7516546
39.6069746
38.5161919
37.4677112
36.4528434
35.465128
34.4996067
33.5522983
32.6199201
31.6997468
30.7895305
29.8874506
28.992082
28.1023724
27.2176231
26.3374666
25.4618399
24.5909503
23.7252339
54.159327
53.3102281
51.5119606
49.5700206
47.7749798
46.1138963
44.5926971
43.2127347
41.9466781
40.7641491
39.6441337
38.572308
37.5380791
36.5336235
35.5531762
34.592302
33.6474099
32.7155075
31.7940835
30.8810477
29.9747021
29.0737273
28.177177
27.2844718
26.3953888
25.5100407
24.6288445
23.7524768
53.7756133
52.9380885
51.1792107
49.294674
47.5586619
45.9519726
44.4799195
43.1431059
41.9134976
40.7610138
39.6654679
38.6133338
37.5947021
36.6023546
35.6310343
34.6766992
33.7360515
32.8063139
31.8851296
30.9705205
30.060875
29.1549535
28.2518988
27.3512462
26.4529245
25.5572446
24.6648704
23.7767716
53.4649559
52.6352875
50.9030235
49.0586902
47.3666698
45.8029597
44.3713468
43.0713366
41.8740605
40.7492843
39.6771393
38.6445303
37.6419651
36.6626138
35.7015568
34.7550191
33.8198984
32.8935522
31.9737117
31.0584534
30.1462035
29.2357611
28.3263275
27.4175339
26.5094586
25.6026268
24.6979863
23.7968562
53.2112615
52.3871242
50.6736238
48.8583611
47.1996222
45.6699684
44.271569
43.0027659
41.8338549
40.7342395
39.6840509
38.6703528
37.6838573
36.7179438
35.7678805
34.8300392
33.9014144
32.979415
32.0617855
31.1465895
30.2322294
29.3174881
28.4015811
27.4842054
26.5655779
25.6464505
24.7280949
23.8122491
53.0031372
52.1830452
50.4832938
48.6896885
47.0565597
45.5540987
44.1830886
42.9407906
41.7967122
40.719812
39.6900459
38.6944564
37.7238023
36.7715315
35.8329752
34.9045424
33.9832291
33.0664078
32.1517536
31.2372365
30.3211579
29.4022122
28.4795657
27.5529338
26.6226469
25.6896923
24.7557133
23.8229539
52.8322348
52.0152012
50.3258608
48.5488467
46.9358236
45.4553616
44.1071486
42.887512
41.765253
40.708876
39.6980792
38.7197748
37.7646592
36.8261442
35.8995236
34.981149
34.0679277
33.1571064
32.2461995
31.3329885
30.4155768
29.492475
28.5627108
27.6259441
26.6825765
25.7338281
24.7817641
23.8292448
52.6922356
51.877584
50.1963664
48.4324137
46.8355253
45.3731571
44.0441648
42.844107
41.7411781
40.7034579
39.7103596
38.7486074
37.8087665
36.8841387
35.969904
35.0622781
34.1579966
33.2540911
32.3478147
31.4366531
30.5183911
29.5912279
28.6539278
27.7059854
26.7477954
25.7807882
24.8075038
23.8315594
52.5782142
51.7654712
50.0907724
48.3373776
46.7537365
45.3065325
43.9940031
42.8110939
41.7254947
40.7049097
39.7284733
38.7827002
37.8579871
36.9474797
36.0461897
35.1501347
34.2558043
33.3599273
32.4593921
31.5512599
30.6328495
29.7018821
28.7566829
27.7964168
26.8213417
25.8330391
24.8345679
23.8304791
52.4862227
51.6750517
50.0057256
48.2610867
46.6885767
45.2543402
43.9561641
42.788516
41.7186786
40.7140385
39.7534781
38.8233069
37.9137422
37.0177508
36.1301441
35.2466931
34.3635835
33.4771576
32.5838279
31.6800868
30.7626045
29.8284086
28.8751428
27.901395
26.9070731
25.8937804
24.8651131
23.8267723
52.4130114
51.6031694
49.9383839
48.2011857
46.6382433
45.2153252
43.9298966
42.7760618
41.7207852
40.7311979
39.7859711
38.8712325
37.9770301
37.0961518
36.2231971
35.353669
34.4834001
33.6082725
32.7241102
31.8266777
30.9117803
29.9754713
29.0143772
28.0261421
27.0099756
25.9672521
24.9020528
23.8214831
52.3558363
51.5471456
49.8862865
48.1555552
46.6010132
45.1881688
43.9142664
42.7731429
41.7315248
40.7563521
39.8261343
38.9268566
38.0484266
37.1834797
36.3264158
35.4724674
34.6170884
33.7556466
32.8832755
31.9948427
31.0850336
30.1485722
29.1806092
28.1773044
27.1366076
26.0591976
24.9494374
23.8160976
52.3123268
51.5046548
49.8472594
48.1222606
46.5752334
45.1715112
43.9081983
42.7789449
41.7503132
40.7891161
39.8737597
38.9901382
38.1280755
37.2800955
36.4404381
35.604092
34.7661482
33.9214364
33.0643204
32.1886072
31.2875794
30.3541955
29.381516
28.3634282
27.2957248
26.1775426
25.0130081
23.8127611
52.2803923
51.4736377
49.8193473
48.0995112
46.5593084
45.1639623
43.9105019
42.7924606
41.7763035
40.8287797
39.928261
39.0606195
38.2156588
37.3858589
36.5653736
35.7490242
34.931597
34.1074119
33.2700337
32.4120795
31.5251448
30.5999161
29.6265683
28.5955923
27.4992031
26.3334731
25.1010816
23.8144544
52.2581593
51.452241
49.8007661
48.0856314
46.5516908
45.1641073
43.9198892
42.812513
41.8084069
40.8743312
39.9886891
39.1374063
38.310345
37.5000466
36.7006938
35.9070621
35.1137575
34.3146999
33.5027145
32.6691832
31.8037839
30.8943983
29.9273409
28.8881671
27.7633564
26.5433019
25.2266322
23.8264343
52.2439294
51.4387784
49.7898714
48.079042
46.5508759
45.1705148
43.9349878
42.837775
41.8453277
40.9244765
40.0537259
39.2191378
38.4107439
37.6212739
36.845093
36.0771147
35.3119755
34.5434189
33.7637341
32.9631878
32.129461
31.2471682
30.2976643
29.2595188
28.1102171
26.8301548
25.4091145
23.8581761
52.2361527
51.431708
49.7851415
48.078252
46.5554028
45.1817439
43.9543693
42.8668073
41.8855831
40.9776473
40.1216846
39.3039874
38.5148728
37.7474089
36.9963388
36.2569644
35.5242664
34.7921863
34.0528943
33.2959403
32.5072555
31.6680346
30.753679
29.7332242
28.5700852
27.226484
25.6725458
23.9116655
52.2334142
51.4296272
49.7851693
48.081856
46.5638654
45.196373
43.9765761
42.8980802
41.9275226
41.032034
40.1905473
39.3896741
38.6201374
37.8755091
37.1511373
36.443024
35.7469144
35.0575024
34.3675363
33.6666641
32.9398944
32.1655833
31.312988
30.3396205
29.1891454
27.7929272
26.0749338
24.0034679
52.2344335
51.4312481
49.788662
48.0885469
46.574929
45.2130214
44.0001426
42.9300031
41.9693857
41.0856443
40.2580149
39.4735062
38.7233585
38.0018096
37.3050508
36.6301335
35.974077
35.3330587
34.7014259
34.0702804
33.4253605
32.7438769
31.9900636
31.1092254
30.022045
28.6198498
26.7559016
24.3133798
52.2380686
51.4354074
49.7944527
48.0971314
46.5873497
45.2303703
44.0236391
42.9609882
42.0093665
41.1363761
40.3215919
39.5524734
38.8208626
38.1217957
37.4525194
36.8114734
36.1974918
35.6090899
35.0435435
34.4954163
33.9540311
33.3990153
32.7926333
32.0666105
31.1063207
29.7236405
27.6785435
24.722736
52.2433237
51.4411005
49.8015168
48.106546
46.600003
45.2472061
44.0457236
42.9895124
42.0456927
41.1821187
40.3787111
39.6233978
38.908658
38.2303972
37.5870515
36.9786985
36.4064398
35.8719453
35.3768802
34.9218678
34.5043754
34.1141686
33.7233822
33.2639951
32.5826808
31.3155884
28.8589152
23.8641047
52.249363
51.4474847
49.8089879
48.1158818
46.611916
45.2624621
44.0651959
43.0141894
42.0767211
41.2208764
40.4268955
39.6831438
38.9827068
38.3223344
37.7016508
37.122427
36.5882163
36.1042994
35.6777641
35.3175538
35.0342157
34.8384968
34.7369041
34.7181396
34.712243
34.4285676
32.9480199
25.4739977
68.4971562
60.10325
54.0728281
50.6773316
48.1245716
45.9657642
44.1877269
42.6865412
41.352921
40.1296815
38.9879251
37.9081803
36.8763549
35.8824012
34.9188484
33.9798646
33.0608084
32.1579684
31.2683727
30.3896448
29.5198977
28.6576518
27.801773
26.9514224
26.1060161
25.2651912
24.4287752
23.5967577
60.7910064
57.6935909
54.1091289
51.2011899
48.7263917
46.5363938
44.6600767
43.056639
41.642683
40.3594031
39.1732913
38.061142
37.0052544
35.9927505
35.0143648
34.0631758
33.1338516
32.2222336
31.3250544
30.4397337
29.5642351
28.6969661
27.8367048
26.9825431
26.1338414
25.2901909
24.4513801
23.6173644
57.5713046
56.497373
53.9767681
51.2769203
48.9113081
46.8056242
44.9275713
43.2800649
41.8236697
40.5077744
39.2963866
38.1648711
37.0943647
36.0705883
35.0831713
34.1244953
33.1887786
32.2715551
31.369351
30.4794495
29.5997231
28.7285172
27.864569
27.006945
26.1549925
25.3082989
24.4666565
23.6300293
56.0424832
55.4118645
53.4180536
51.0277959
48.8606065
46.8977237
45.0904682
43.4602456
41.9992305
40.6714296
39.4450955
38.2982719
37.2138589
36.1780073
35.1801318
34.2123125
33.2684941
32.3439641
31.4350427
30.5388553
29.6531593
28.7762198
27.9067222
27.0437065
26.1865149
25.3347474
24.4882232
23.6469442
54.9560296
54.4298444
52.7740367
50.6859787
48.7043625
46.8642672
45.1392098
43.5556929
42.1181401
40.8011556
39.5780058
38.4295233
37.3407266
36.2990919
35.2947146
34.3200462
33.3692465
32.4377047
31.52177
30.6185626
29.7258231
28.8418023
27.9651813
27.0950116
26.230665
25.3717905
24.5182729
23.6701938
54.1504515
53.6856812
52.2205646
50.3293927
48.4846423
46.7446678
45.0987939
43.5722256
42.1723309
40.8802054
39.6733671
38.5348701
37.4514119
36.4118169
35.4071071
34.4303501
33.4761372
32.5401562
31.6189538
30.7097802
29.8104667
28.9193349
28.0351321
27.1569822
26.2843433
25.4169678
24.5548626
23.6982462
53.5380951
53.1078452
51.7458773
49.9807242
48.2418398
46.5870941
45.0121198
43.5413391
42.1826852
40.9207615
39.736131
38.6136277
37.5412559
36.5089528
35.5085787
34.5337886
33.5795976
32.6420064
31.7177878
30.8043557
29.8996665
29.0021475
28.1106477
27.2244007
26.3429918
25.4663232
24.5945753
23.7281622
53.0569072
52.6455998
51.3448494
49.6644305
48.0061203
46.4205202
44.9050877
43.4840962
42.1651703
40.9343337
39.7739635
38.6701902
37.6119846
36.5901174
35.597121
34.6271451
33.6755667
32.7386546
31.8133783
30.8972961
29.9884772
29.0854488
28.1871625
27.2929708
26.4026048
25.5161458
24.6339885
23.7567935
52.6712869
52.271967
51.0105696
49.3879121
47.7891736
46.2582285
44.7920641
43.4143221
42.1318378
40.9309445
39.7949553
38.7108493
37.6682696
36.6585781
35.674809
34.7114991
33.7643091
32.8297139
31.9048302
30.9873205
30.0753339
29.1674707
28.262767
27.3606864
26.4611097
25.5643157
24.6709474
23.7819608
52.3584901
51.9672693
50.7323035
49.1498865
47.5953958
46.1076432
44.6821303
43.3414333
42.0914698
40.9183949
39.8058892
38.7413967
37.7149765
36.7183732
35.7449609
34.7895457
33.847984
32.916885
31.9934515
31.0753982
30.1609081
29.2486162
28.3376129
27.4274539
26.5181662
25.6102405
24.7046027
23.8025593
52.1027695
51.7172227
50.5007904
48.9473349
47.4262163
45.9726741
44.5805953
43.2713782
42.0500325
40.9023184
39.8119336
38.766497
37.7562729
36.7732141
35.8108877
34.864252
33.929265
33.0025898
32.0814441
31.1635295
30.2470038
29.3304839
28.413071
27.4943825
26.5745805
25.6543802
24.73503
23.8182552
51.8928615
51.5114474
50.3085356
48.7765717
47.2810557
45.8547975
44.4902998
43.2078462
42.0115915
40.8868181
39.8170495
38.7898877
37.7956433
36.8263394
35.8756111