/*--------------------------------*- C++ -*----------------------------------*\
| =========                 |                                                 |
| \\      /  F ield         | foam-extend: Open Source CFD                    |
|  \\    /   O peration     | Version:     4.1                                |
|   \\  /    A nd           | Web:         http://www.foam-extend.org         |
|    \\/     M anipulation  |                                                 |
\*---------------------------------------------------------------------------*/
FoamFile
{
    version     2.0;
    format      ascii;
    class       surfaceScalarField;
    location    "0.75";
    object      phi;
}
// * * * * * * * * * * * * * * * * * * * * * * * * * * * * * * * * * * * * * //

dimensions      [0 3 -1 0 0 0 0];

internalField   nonuniform List<scalar> 
102656
(
0.000395261016
5.3026615e-05
5.17123689e-05
0.00028160947
5.82612997e-05
5.53902451e-05
0.000200387883
4.2360109e-05
3.88614768e-05
0.000148889386
2.74481759e-05
2.40503209e-05
0.000117041878
1.73744144e-05
1.44730926e-05
9.68243187e-05
1.12264533e-05
8.99110501e-06
8.35589556e-05
7.39846166e-06
5.8669008e-06
7.46472681e-05
4.89571114e-06
4.0159758e-06
6.84777405e-05
3.24998637e-06
2.91954095e-06
6.40348009e-05
2.17111643e-06
2.27182313e-06
6.07080595e-05
1.45354936e-06
1.87319222e-06
5.8133006e-05
9.66324299e-07
1.60872952e-06
5.60856106e-05
6.29613443e-07
1.41778251e-06
5.4423973e-05
3.93201979e-07
1.26843636e-06
5.30552286e-05
2.24842853e-07
1.1439024e-06
5.1915859e-05
1.03830302e-07
1.03554037e-06
5.09601458e-05
1.68067584e-08
9.38907545e-07
5.01537235e-05
-4.51120176e-08
8.51535465e-07
4.94697356e-05
-8.793281e-08
7.7192188e-07
4.88863032e-05
-1.15647277e-07
6.99080858e-07
4.83850654e-05
-1.31030208e-07
6.32269227e-07
4.79503083e-05
-1.36141178e-07
5.70899466e-07
4.75683869e-05
-1.32591707e-07
5.14514191e-07
4.72273323e-05
-1.21703877e-07
4.62759484e-07
4.69166033e-05
-1.04638482e-07
4.15368421e-07
4.6626937e-05
-8.24805271e-08
3.72147767e-07
4.63502627e-05
-5.62890139e-08
3.32964144e-07
-2.71179466e-08
2.97729933e-07
4.60796514e-05
0.000461998941
2.77115066e-05
6.33161665e-05
0.000392853451
5.22457849e-05
7.51610032e-05
0.00032388648
5.01981653e-05
6.11289124e-05
0.000266758786
4.04826047e-05
4.40932641e-05
0.00022383871
3.04905369e-05
2.98039516e-05
0.000193123458
2.23557606e-05
1.95859436e-05
0.000171285463
1.6296827e-05
1.29396291e-05
0.000155541514
1.18591707e-05
8.78048921e-06
0.000143954603
8.61677379e-06
6.22012267e-06
0.000135213107
6.26182797e-06
4.65078522e-06
0.000128445988
4.55221557e-06
3.66845347e-06
0.00012308391
3.3031607e-06
3.025242e-06
0.000118751442
2.38180169e-06
2.58028177e-06
0.000115195531
1.69450075e-06
2.25461345e-06
0.000112241322
1.17592327e-06
2.0031303e-06
0.000109764375
7.81081327e-07
1.79969814e-06
0.00010767311
4.79180576e-07
1.62889327e-06
0.000105897582
2.49087657e-07
1.48133054e-06
0.000104382475
7.6136193e-08
1.35103992e-06
0.000103082943
-5.01087142e-08
1.23399527e-06
0.00010196179
-1.37245681e-07
1.12737106e-06
0.000100987409
-1.90926966e-07
1.02916817e-06
0.000100132426
-2.15582737e-07
9.3797626e-07
9.93728544e-05
-2.14924526e-07
8.52794021e-07
9.86875452e-05
-1.92254361e-07
7.72926693e-07
9.80578268e-05
-1.50681965e-07
6.9792127e-07
9.74672846e-05
-9.32642095e-08
6.27518823e-07
-2.30786408e-08
5.61613931e-07
9.69016326e-05
0.000447769734
1.52546282e-05
6.46871439e-05
0.000388238341
3.58422336e-05
7.59349426e-05
0.000335581042
4.0667755e-05
6.21877073e-05
0.00029176106
3.76333857e-05
4.66692005e-05
0.000257077869
3.18683295e-05
3.33053965e-05
0.000230707154
2.56796479e-05
2.30468273e-05
0.000210911269
2.0156067e-05
1.59366442e-05
0.000195899191
1.56050275e-05
1.1266221e-05
0.000184284379
1.19781714e-05
8.25341429e-06
0.000175096509
9.13938269e-06
6.31031506e-06
0.000167678682
6.93986479e-06
5.03017881e-06
0.000161589385
5.24121828e-06
4.15124015e-06
0.000156526106
3.92707639e-06
3.51800573e-06
0.000152274568
2.90526046e-06
3.04077962e-06
0.000148677992
2.10554594e-06
2.66695441e-06
0.000145618188
1.47610434e-06
2.36478202e-06
0.000143003466
9.79528634e-07
2.11437606e-06
0.000140760795
5.89127209e-07
1.90263307e-06
0.000138830625
2.85870545e-07
1.72043748e-06
0.000137163267
5.60764958e-08
1.56117411e-06
0.000135716429
-1.10307122e-07
1.41990113e-06
0.000134453587
-2.20934721e-07
1.29285151e-06
0.000133342759
-2.81922059e-07
1.1771687e-06
0.000132355606
-2.98477962e-07
1.07070773e-06
0.000131466856
-2.75383132e-07
9.71879576e-07
0.000130653947
-2.17313002e-07
8.79541275e-07
0.000129896814
-1.29041629e-07
7.92911319e-07
-1.55518089e-08
7.11497871e-07
0.000129177791
0.000440472626
9.95899364e-06
6.48230074e-05
0.000375874113
2.46434455e-05
7.57973003e-05
0.00032470106
3.07170987e-05
6.11237084e-05
0.000286197722
3.08579296e-05
4.52787923e-05
0.000257840029
2.81114304e-05
3.21145917e-05
0.000237174345
2.41850532e-05
2.21602773e-05
0.000221931186
2.0077285e-05
1.53219404e-05
0.000210341544
1.63122061e-05
1.08824641e-05
0.000201199938
1.30681231e-05
8.05165396e-06
0.00019374041
1.03570679e-05
6.24184279e-06
0.000187493752
8.13016424e-06
5.05635963e-06
0.000182174355
6.31864122e-06
4.2419748e-06
0.000177601119
4.85161835e-06
3.64869499e-06
0.000173649753
3.66472668e-06
3.19190099e-06
0.00017022742
2.70367149e-06
2.82420825e-06
0.00016725992
1.92496375e-06
2.51864161e-06
0.000164685174
1.29505718e-06
2.25921888e-06
0.000162449808
7.88740595e-07
2.035754e-06
0.000160507188
3.8735761e-07
1.84113403e-06
0.000158816115
7.71644013e-08
1.66998584e-06
0.000157339844
-1.52074136e-07
1.51803975e-06
0.00015604534
-3.08242446e-07
1.38181232e-06
0.000154902703
-3.97747413e-07
1.25846338e-06
0.000153884726
-4.26191844e-07
1.14569273e-06
0.000152966604
-3.98930827e-07
1.04167002e-06
0.000152125776
-3.21462511e-07
9.44978415e-07
0.000151341855
-1.99682076e-07
8.54562127e-07
-4.00160166e-08
7.69675023e-07
0.000150596645
0.000437878221
7.06253122e-06
6.50182402e-05
0.000368457224
1.77995255e-05
7.62649164e-05
0.00031473052
2.3403944e-05
6.10398575e-05
0.000276414533
2.47888255e-05
4.438509e-05
0.000250113769
2.36947172e-05
3.07174762e-05
0.000232369382
2.132908e-05
2.060036e-05
0.000220184326
1.84571563e-05
1.38051846e-05
0.000211417246
1.55635392e-05
9.51574621e-06
0.000204718354
1.28904934e-05
6.87652271e-06
0.000199291618
1.0524905e-05
5.25889887e-06
0.000194693757
8.48021911e-06
4.24780646e-06
0.00019069015
6.73804273e-06
3.58420673e-06
0.000187158034
5.26669865e-06
3.11703563e-06
0.000184029023
4.03087804e-06
2.7628608e-06
0.000181258893
2.99688641e-06
2.47691619e-06
0.000178813162
2.13519636e-06
2.23549927e-06
0.0001766609
1.42135016e-06
2.02596919e-06
0.000174772519
8.35895955e-07
1.84122708e-06
0.000173119235
3.63805954e-07
1.67683581e-06
0.000171673103
-6.31911087e-09
1.52961704e-06
0.000170407185
-2.83182096e-07
1.39702651e-06
0.000169295679
-4.73626006e-07
1.27689018e-06
0.000168313916
-5.83317738e-07
1.16733367e-06
0.000167438463
-6.1746064e-07
1.06672296e-06
0.000166647208
-5.8134254e-07
9.73667164e-07
0.000165919483
-4.80755799e-07
8.87018575e-07
0.000165236225
-3.22289339e-07
8.05865952e-07
-1.13482914e-07
7.29520845e-07
0.000164580172
0.000436606356
5.27538764e-06
6.51807869e-05
0.000364324427
1.34332018e-05
7.66482517e-05
0.000308255517
1.82404361e-05
6.12324171e-05
0.000268855449
2.00666731e-05
4.41222197e-05
0.000242612805
1.98823394e-05
3.00550216e-05
0.000225731486
1.85122413e-05
1.96981567e-05
0.000214862465
1.65349412e-05
1.27912364e-05
0.000207595178
1.43505459e-05
8.48028059e-06
0.000202409474
1.21966079e-05
5.87958932e-06
0.000198412982
1.01889903e-05
4.3324071e-06
0.000195114406
8.3746142e-06
3.40418202e-06
0.000192261355
6.76540441e-06
2.82568949e-06
0.000189731755
5.35567432e-06
2.44062543e-06
0.000187468487
4.13154185e-06
2.16260432e-06
0.000185443665
3.07631866e-06
1.94539021e-06
0.000183640493
2.17350513e-06
1.76486394e-06
0.000182044882
1.40833121e-06
1.60863037e-06
0.000180642147
7.68409575e-07
1.47022191e-06
0.00017941608
2.4383617e-07
1.34603669e-06
0.000178349045
-1.73073211e-07
1.23378987e-06
0.000177422309
-4.88272126e-07
1.13182606e-06
0.000176616391
-7.06492102e-07
1.03878477e-06
0.000175911456
-8.31860156e-07
9.53477372e-07
0.000175287671
-8.68508521e-07
8.74833972e-07
0.000174725532
-8.21110938e-07
8.01907423e-07
0.000174206226
-6.95328355e-07
7.33879434e-07
0.000173712003
-4.98133267e-07
6.70066972e-07
-2.37981934e-07
6.09924517e-07
0.000173226578
0.00043588461
4.09165397e-06
6.52991228e-05
0.000361912115
1.04671044e-05
7.69385923e-05
0.000304149357
1.45061073e-05
6.14970864e-05
0.000263621621
1.64096044e-05
4.41848044e-05
0.00023688845
1.67260666e-05
2.98894432e-05
0.000220038293
1.60002081e-05
1.93621904e-05
0.000209567732
1.46607988e-05
1.23447031e-05
0.000202924174
1.30250465e-05
7.96905756e-06
0.000198479846
1.1302097e-05
5.33883933e-06
0.00019527009
9.61297444e-06
3.78577196e-06
0.000192757686
8.02131668e-06
2.86570216e-06
0.000190661865
6.55728618e-06
2.30393963e-06
0.000188844172
5.23217026e-06
1.94119762e-06
0.000187239721
4.04702731e-06
1.68896543e-06
0.000185818867
2.99783159e-06
1.4993412e-06
0.000184566884
2.07851373e-06
1.34697507e-06
0.000183473882
1.2827247e-06
1.21860873e-06
0.000182530291
6.04796792e-07
1.10720303e-06
0.000181725122
4.01870903e-08
1.00881856e-06
0.00018104555
-4.14547346e-07
9.21046644e-07
0.000180476973
-7.61908717e-07
8.42213341e-07
0.000180003236
-1.00380727e-06
7.71051945e-07
0.000179607022
-1.14214272e-06
7.0649694e-07
0.000179270249
-1.17935484e-06
6.47620071e-07
0.000178974503
-1.11897243e-06
5.93607103e-07
0.000178701535
-9.66107522e-07
5.43747184e-07
0.000178433805
-7.27831951e-07
4.9742959e-07
-4.13380969e-07
4.54141786e-07
0.000178155062
0.000435448367
3.25258567e-06
6.53907005e-05
0.000360405693
8.34050515e-06
7.71692734e-05
0.000301443557
1.17157255e-05
6.17525174e-05
0.000259981475
1.35242324e-05
4.43474536e-05
0.000232689617
1.40937097e-05
2.99242152e-05
0.000215615206
1.37794051e-05
1.92952135e-05
0.000205175266
1.28909585e-05
1.22097807e-05
0.00019873827
1.16727072e-05
7.78933611e-06
0.000194611984
1.02987159e-05
5.12966718e-06
0.000191785896
8.88220614e-06
3.55685643e-06
0.000189692273
7.49229977e-06
2.62264089e-06
0.000188029906
6.16911495e-06
2.0505381e-06
0.000186646422
4.93475876e-06
1.68089565e-06
0.000185467738
3.80062703e-06
1.4250841e-06
0.000184458635
2.77200086e-06
1.23493438e-06
0.000183601514
1.85092273e-06
1.08471136e-06
0.000182885511
1.03800483e-06
9.60722918e-07
0.000182301285
3.33528383e-07
8.55494647e-07
0.000181838768
-2.61986957e-07
7.64690881e-07
0.00018148625
-7.47613707e-07
6.85583757e-07
0.000181230091
-1.1220057e-06
6.16255797e-07
0.000181054829
-1.38379967e-06
5.55254692e-07
0.000180943404
-1.53210292e-06
5.01385689e-07
0.000180877497
-1.56708257e-06
4.53634659e-07
0.000180837998
-1.49059682e-06
4.11123293e-07
0.000180805593
-1.30678846e-06
3.73085902e-07
0.000180761468
-1.02255843e-06
3.38852366e-07
-6.47832615e-07
3.07834828e-07
0.000180688085
0.000435163499
2.62725499e-06
6.54618313e-05
0.000359408073
6.74802367e-06
7.73479071e-05
0.000299593316
9.56571637e-06
6.19647667e-05
0.00025739744
1.12041513e-05
4.45159573e-05
0.000229596179
1.1874273e-05
3.00206973e-05
0.000212233371
1.18096629e-05
1.9332551e-05
0.000201684961
1.1230402e-05
1.22089662e-05
0.000195272428
1.03209769e-05
7.76426372e-06
0.000191261867
9.2213712e-06
5.08790566e-06
0.000188611337
8.03084057e-06
3.50189643e-06
0.000186731707
6.81654896e-06
2.55538053e-06
0.000185307485
5.62234387e-06
1.97099341e-06
0.000184176514
4.47634913e-06
1.58938032e-06
0.000183257971
3.39665995e-06
1.32251094e-06
0.000182512124
2.39517464e-06
1.12267247e-06
0.000181918537
1.48013239e-06
9.64377335e-07
0.000181464705
6.57821822e-07
8.34014674e-07
0.000181140455
-6.62962212e-08
7.24074044e-07
0.000180935331
-6.87005749e-07
6.30143121e-07
0.000180837351
-1.19897171e-06
5.49337665e-07
0.000180832524
-1.59681036e-06
4.79631154e-07
0.000180904724
-1.8754525e-06
4.1945254e-07
0.000181035778
-2.03066921e-06
3.67512674e-07
0.000181205743
-2.05976814e-06
3.22720171e-07
0.0001813934
-1.96237838e-06
2.84124997e-07
0.000181576943
-1.74123e-06
2.50898539e-07
0.000181734877
-1.40279124e-06
2.22299879e-07
-9.57643782e-07
1.9764722e-07
0.000181847041
0.00043496715
2.14335024e-06
6.55167549e-05
0.000358717788
5.51188755e-06
7.74854983e-05
0.000298286576
7.86252652e-06
6.21344018e-05
0.000255520754
9.30484413e-06
4.46651293e-05
0.000227282792
9.98453303e-06
3.01277028e-05
0.000209630941
1.00584065e-05
1.94031073e-05
0.000198922947
9.68211898e-06
1.22562778e-05
0.00019245282
8.99322634e-06
7.79787726e-06
0.000188459434
8.10187538e-06
5.1128828e-06
0.000185878555
7.0916187e-06
3.52010104e-06
0.000184104954
6.023534e-06
2.56661591e-06
0.000182812087
4.94095019e-06
1.97425987e-06
0.000181830248
3.87437388e-06
1.58381412e-06
0.000181073488
2.84568393e-06
1.30773587e-06
0.000180498721
1.87115933e-06
1.09878267e-06
0.000180083438
9.63600584e-07
9.31813845e-07
0.00017981396
1.33855708e-07
7.93443943e-07
0.000179679512
-6.08168844e-07
6.76320407e-07
0.000179669252
-1.25281633e-06
5.76070263e-07
0.000179770804
-1.79037215e-06
4.89848459e-07
0.000179969526
-2.21117101e-06
4.15638834e-07
0.000180248159
-2.50595512e-06
3.51868853e-07
0.000180586764
-2.66653152e-06
2.97257414e-07
0.000180962929
-2.68665251e-06
2.50719691e-07
0.000181352279
-2.56303917e-06
2.11311221e-07
0.000181729302
-2.29643795e-06
1.78184896e-07
0.000182068487
-1.89255055e-06
1.50574498e-07
-1.36264567e-06
1.27785889e-07
0.000182345704
0.000434826601
1.75745529e-06
6.55592945e-05
0.000358222434
4.52397928e-06
7.75920753e-05
0.000297335457
6.4810058e-06
6.22684983e-05
0.000254125781
7.72498899e-06
4.47895318e-05
0.000225522383
8.36196197e-06
3.02259687e-05
0.000207603399
8.4998387e-06
1.94775526e-05
0.000196721242
8.24895813e-06
1.23153185e-05
0.000190155086
7.7111442e-06
7.84823799e-06
0.000186126826
6.97181914e-06
5.15831607e-06
0.000183556989
6.09946896e-06
3.56198764e-06
0.000181828446
5.14731422e-06
2.60476242e-06
0.000180605989
4.15561787e-06
2.00778925e-06
0.000179713783
3.15474446e-06
1.61183518e-06
0.000179061691
2.16814365e-06
1.32963148e-06
0.000178603943
1.21466743e-06
1.11424007e-06
0.000178316487
3.10295015e-07
9.40760994e-07
0.000178184918
-5.30582091e-07
7.96006311e-07
0.000178198203
-1.2941786e-06
6.72724787e-07
0.000178345441
-1.96666316e-06
5.66608988e-07
0.000178614093
-2.5339227e-06
4.74897886e-07
0.000178988942
-2.98164883e-06
3.95628641e-07
0.000179451487
-3.29578896e-06
3.27289406e-07
0.000179979673
-3.46336191e-06
2.68643954e-07
0.000180547976
-3.47360652e-06
2.18651538e-07
0.000181127894
-3.31938142e-06
1.76423978e-07
0.000181688938
-2.99866115e-06
1.41179195e-07
0.000182200098
-2.51591387e-06
1.12204354e-07
-1.88308586e-06
8.882449e-08
0.000182631714
0.00043472265
1.44232458e-06
6.55924806e-05
0.000357855296
3.71605044e-06
7.76752843e-05
0.000296623397
5.33856359e-06
6.23743417e-05
0.000253064669
6.39299102e-06
4.48907263e-05
0.000224157637
6.95887225e-06
3.03101219e-05
0.000205999933
7.11206352e-06
1.95454795e-05
0.000194945238
6.9311984e-06
1.23724552e-05
0.000188265764
6.49134616e-06
7.89927244e-06
0.000184173518
5.85804404e-06
5.2060211e-06
0.000181579198
5.08634151e-06
3.60744685e-06
0.000179857393
4.22121765e-06
2.64790235e-06
0.000178666463
3.29853278e-06
2.04801407e-06
0.000177825834
2.34687853e-06
1.64849473e-06
0.000177242074
1.38967712e-06
1.36222664e-06
0.000176867349
4.46942129e-07
1.14245027e-06
0.000176676554
-4.633427e-07
9.64432518e-07
0.000176654975
-1.3240754e-06
8.15071878e-07
0.00017679177
-2.11811689e-06
6.87142841e-07
0.000177076401
-2.82771357e-06
5.76419398e-07
0.000177496511
-3.43421838e-06
4.80185184e-07
0.00017803655
-3.91819874e-06
3.96511142e-07
0.000178676817
-4.25998769e-06
3.2393189e-07
0.000179392887
-4.44071165e-06
2.61279336e-07
0.000180155477
-4.44379498e-06
2.07598917e-07
0.000180930877
-4.2568747e-06
1.62093082e-07
0.000181682091
-3.87394761e-06
1.2407251e-07
0.000182370722
-3.29745494e-06
9.29105032e-08
-2.53989459e-06
6.79964481e-08
0.000182959535
0.000434643458
1.18022836e-06
6.56186391e-05
0.000357575092
3.04344396e-06
7.77409727e-05
0.000296075859
4.3793736e-06
6.24584236e-05
0.000252238533
5.25771924e-06
4.49725987e-05
0.000223078379
5.73868825e-06
3.03803387e-05
0.000204710008
5.87623058e-06
1.96042045e-05
0.00019349129
5.72661839e-06
1.24232977e-05
0.000186692096
5.34501243e-06
7.94552763e-06
0.000182519207
4.78119133e-06
5.24974197e-06
0.00017987743
4.07863726e-06
3.64948128e-06
0.000178136001
3.2744084e-06
2.68823829e-06
0.000176948903
2.39938374e-06
2.08624594e-06
0.00017613224
1.47937715e-06
1.68416451e-06
0.000175590301
5.36648089e-07
1.3949673e-06
0.00017527396
-4.08750497e-07
1.17203401e-06
0.000175157694
-1.33778795e-06
9.90710978e-07
0.000175227123
-2.23139538e-06
8.3789113e-07
0.000175472212
-3.06961626e-06
7.06409562e-07
0.000175883395
-3.83095256e-06
5.92056616e-07
0.000176449088
-4.49203238e-06
4.92120789e-07
0.000177153886
-5.0276958e-06
4.04698415e-07
0.000177977143
-5.4116126e-06
3.28368388e-07
0.00017889194
-5.6175349e-06
2.62026145e-07
0.000179864586
-5.62124661e-06
2.04805866e-07
0.000180854868
-5.40317567e-06
1.5601903e-07
0.000181817305
-4.95148558e-06
1.15100714e-07
0.000182703554
-4.2652562e-06
8.15523089e-08
-3.35714391e-06
5.48747025e-08
0.000183465929
0.000434581436
9.59253613e-07
6.56395397e-05
0.000357355272
2.47604168e-06
7.77935666e-05
0.000295643756
3.56489159e-06
6.25259994e-05
0.000251579988
4.28232975e-06
4.50391581e-05
0.000222206712
4.67342146e-06
3.04385427e-05
0.000203652557
4.77642618e-06
1.96539597e-05
0.000192280498
4.63156957e-06
1.24671082e-05
0.000185360591
4.27914813e-06
7.98577158e-06
0.00018109734
3.75647768e-06
5.28796454e-06
0.000178392386
3.09724351e-06
3.68634763e-06
0.000176611834
2.33120481e-06
2.7237549e-06
0.000175407024
1.48408048e-06
2.12011256e-06
0.000174592078
5.78290839e-07
1.71603249e-06
0.000174070062
-3.65916039e-07
1.42457962e-06
0.000173791453
-1.32935098e-06
1.19920999e-06
0.000173731192
-2.29277919e-06
1.01525201e-06
0.000173876077
-3.23593457e-06
8.59654228e-07
0.000174217767
-4.13656395e-06
7.25257325e-07
0.000174748623
-4.96964222e-06
6.07833732e-07
0.000175458805
-5.70687924e-06
5.04664285e-07
0.000176333931
-6.31667724e-06
4.13855856e-07
0.000177353028
-6.76472918e-06
3.3401921e-07
0.000178486841
-7.01546003e-06
2.64112229e-07
0.000179696709
-7.03448119e-06
2.0336619e-07
0.000180934417
-6.79211305e-06
1.51229934e-07
0.000182143442
-6.26782089e-06
1.07309396e-07
0.000183261973
-5.45507998e-06
7.12929682e-08
-4.36577952e-06
4.28536623e-08
0.000184227755
0.000434531561
7.71178589e-07
6.56565148e-05
0.000357178203
1.9930242e-06
7.7836376e-05
0.000295293951
2.86800749e-06
6.25811379e-05
0.000251042371
3.44003733e-06
4.50938729e-05
0.000221487061
3.74172761e-06
3.04870041e-05
0.000202767926
3.79957292e-06
1.96959887e-05
0.000191252969
3.64199757e-06
1.25045292e-05
0.000184213695
3.2980579e-06
8.02036385e-06
0.000179854084
2.7951652e-06
5.3209233e-06
0.000177074389
2.15873329e-06
3.71820523e-06
0.000175239213
1.41185778e-06
2.75452227e-06
0.000173998621
5.75124966e-07
2.14954742e-06
0.000173165868
-3.32841421e-07
1.74388456e-06
0.000172643814
-1.29450681e-06
1.45064497e-06
0.000172383556
-2.29234522e-06
1.22325163e-06
0.000172361477
-3.30778966e-06
1.03709013e-06
0.000172566606
-4.32018975e-06
8.79126198e-07
0.000172993523
-5.30564591e-06
7.42164691e-07
0.000173637889
-6.2359575e-06
6.21948901e-07
0.000174493083
-7.07781258e-06
5.15738811e-07
0.000175547205
-7.79243028e-06
4.21630994e-07
0.000176780186
-8.33596558e-06
3.38255455e-07
0.000178161101
-8.66101007e-06
2.6463502e-07
0.000179646042
-8.71954078e-06
2.00118533e-07
0.000181177157
-8.46756252e-06
1.44333822e-07
0.000182683623
-7.87141396e-06
9.71270755e-08
0.000184085276
-6.91520099e-06
5.84681275e-08
-5.60810722e-06
2.83058274e-08
0.000185299298
0.000434490409
6.10213515e-07
6.56705565e-05
0.00035703188
1.57969689e-06
7.78718577e-05
0.00029500363
2.26933334e-06
6.26269253e-05
0.000250592914
2.71121094e-06
4.51395426e-05
0.000220879432
2.92740295e-06
3.05278075e-05
0.00020201206
2.93521749e-06
1.9731728e-05
0.000190363315
2.75414232e-06
1.25365995e-05
0.000183206642
2.40458057e-06
8.05015068e-06
0.000178746439
1.90598363e-06
5.34938388e-06
0.000175882692
1.27670053e-06
3.74578009e-06
0.000173979581
5.33746077e-07
2.78122179e-06
0.000172686847
-3.07355582e-07
2.17521462e-06
0.000171817832
-1.2321527e-06
1.768326e-06
0.000171276148
-2.2264156e-06
1.47359185e-06
0.00017101442
-3.27510608e-06
1.24448936e-06
0.000171011498
-4.36131312e-06
1.05644523e-06
0.000171259929
-5.46500087e-06
8.96379658e-07
0.000171758754
-6.56153144e-06
7.57060469e-07
0.000172508782
-7.62016385e-06
6.34178333e-07
0.000173508744
-8.60271532e-06
5.24940726e-07
0.000174751497
-9.46260034e-06
4.27416987e-07
0.000176220015
-1.01447287e-05
3.40245214e-07
0.000177883258
-1.05867657e-05
2.6251178e-07
0.00017969242
-1.07224101e-05
1.93706756e-07
0.00018157845
-1.04872902e-05
1.33697984e-07
0.000183452133
-9.82777802e-06
8.26806913e-08
0.000185208157
-8.71229014e-06
4.10644515e-08
-7.14344955e-06
9.25399914e-09
0.000186734245
0.000434455609
4.72205251e-07
6.56823999e-05
0.000356907982
1.22549863e-06
7.79018263e-05
0.000294756843
1.75480375e-06
6.266567e-05
0.000250208359
2.0813587e-06
4.51783368e-05
0.000220354893
2.21818892e-06
3.05626806e-05
0.000201352423
2.17520177e-06
1.97624855e-05
0.000189577288
1.96492245e-06
1.25643554e-05
0.000182304892
1.60094981e-06
8.07602648e-06
0.000177740493
1.0962077e-06
5.37417402e-06
0.000174784411
4.62924432e-07
3.76985786e-06
0.000172801001
-2.87507082e-07
2.80466331e-06
0.000171440341
-1.14461048e-06
2.19791464e-06
0.000170516591
-2.09841522e-06
1.79001223e-06
0.000169934813
-3.13866366e-06
1.4940253e-06
0.000169649969
-4.2537597e-06
1.26349754e-06
0.000169644424
-5.4295766e-06
1.07380864e-06
0.000169915633
-6.64805278e-06
9.11842336e-07
0.000170468953
-7.88514204e-06
7.70291028e-07
0.000171312713
-9.10868666e-06
6.44762241e-07
0.000172453939
-1.02763284e-05
5.32386935e-07
0.000173893624
-1.13334625e-05
4.31177045e-07
0.000175621287
-1.22121461e-05
3.39753988e-07
0.000177608794
-1.28315333e-05
2.57259926e-07
0.000179804032
-1.3101001e-05
1.83353151e-07
0.000182125699
-1.29271853e-05
1.18227274e-07
0.00018446128
-1.22259564e-05
6.25965265e-08
0.00018667082
-1.09394052e-05
1.75753686e-08
-9.05613133e-06
-1.56785152e-08
0.00018859918
0.0004344255
3.54121656e-07
6.56925841e-05
0.000356800685
9.22703038e-07
7.79276114e-05
0.000294542354
1.31405983e-06
6.26990763e-05
0.00024987214
1.53967977e-06
4.52118936e-05
0.000219892538
1.6048119e-06
3.05929799e-05
0.000200765115
1.51328553e-06
1.97893388e-05
0.000188869289
1.27206453e-06
1.2588684e-05
0.000181482199
8.89271169e-07
8.09876911e-06
0.000176810019
3.72382689e-07
5.39600453e-06
0.000173753572
-2.71820766e-07
3.79119163e-06
0.000171677682
-1.03721796e-06
2.82560009e-06
0.000170233182
-1.91835545e-06
2.21824541e-06
0.00016923537
-2.91010264e-06
1.80949903e-06
0.000168591145
-4.00694886e-06
1.51251036e-06
0.000168258454
-5.20184888e-06
1.2807799e-06
0.000168224224
-6.48499749e-06
1.08965068e-06
0.000168492245
-7.84199925e-06
9.25925138e-07
0.000169076131
-9.25122541e-06
7.82197416e-07
0.000169994683
-1.06811997e-05
6.5396027e-07
0.000171267151
-1.20870213e-05
5.38225086e-07
0.000172907494
-1.3406706e-05
4.32899567e-07
0.000174917267
-1.45584677e-05
3.36548153e-07
0.000177276626
-1.54392426e-05
2.48349734e-07
0.000179934065
-1.59265996e-05
1.68159424e-07
0.00018279646
-1.58861966e-05
9.66152999e-08
0.000185722565
-1.51872709e-05
3.52099762e-08
0.000188524657
-1.37276729e-05
-1.38251037e-08
-1.14676108e-05
-4.80237169e-08
0.00019098416
0.00043439892
2.53702085e-07
6.57015002e-05
0.000356705913
6.65535582e-07
7.7950176e-05
0.000294352268
9.393228e-07
6.27283829e-05
0.00024957253
1.07799833e-06
4.52414195e-05
0.000219477421
1.08019425e-06
3.06197274e-05
0.000200232864
9.44721962e-07
1.98131209e-05
0.000188220623
6.74024249e-07
1.26102814e-05
0.000180719162
2.71754153e-07
8.11897749e-06
0.000175935363
-2.59352306e-07
5.41553418e-06
0.000172770465
-9.17354608e-07
3.81043096e-06
0.000170589802
-1.70105899e-06
2.84450328e-06
0.000169044911
-2.61009946e-06
2.23663526e-06
0.000167952218
-3.64466379e-06
1.82725359e-06
0.000167220607
-4.80479842e-06
1.52946089e-06
0.000166811371
-6.0893307e-06
1.2967177e-06
0.000166716648
-7.49457158e-06
1.10429609e-06
0.000166947727
-9.01197582e-06
9.38897726e-07
0.000167528812
-1.06252908e-05
7.92980198e-07
0.000168492542
-1.2306802e-05
6.61872384e-07
0.000169875175
-1.40120606e-05
5.42405561e-07
0.000171710378
-1.56742253e-05
4.32315864e-07
0.00017402004
-1.71981773e-05
3.30046891e-07
0.000176801729
-1.84557094e-05
2.34777553e-07
0.00018001264
-1.92841053e-05
1.46593484e-07
0.000183551673
-1.94919859e-05
6.67559501e-08
0.000187244046
-1.88775688e-05
-2.07500395e-09
0.000190836464
-1.72642347e-05
-5.58575082e-08
-1.45560889e-05
-8.97667913e-08
0.000194014708
0.000434375067
1.69209187e-07
6.57094261e-05
0.000356620853
4.49546401e-07
7.79702042e-05
0.000294181131
6.24577071e-07
6.27544692e-05
0.000249301407
6.89947246e-07
4.52677755e-05
0.000219099155
6.38785528e-07
3.06436607e-05
0.000199743631
4.65808877e-07
1.98344383e-05
0.000187618196
1.69821181e-07
1.26296375e-05
0.000180002184
-2.49458835e-07
8.13722526e-06
0.000175102765
-7.93241347e-07
5.43330709e-06
0.000171821351
-1.46384957e-06
3.82790936e-06
0.000169523441
-2.26481868e-06
2.86166852e-06
0.000167860867
-3.20097037e-06
2.25344505e-06
0.000166650834
-4.27822123e-06
1.84359045e-06
0.000165803933
-5.50305043e-06
1.54515258e-06
0.000165284672
-6.8816033e-06
1.31153351e-06
0.000165090479
-8.41829416e-06
1.11791506e-06
0.000165241081
-1.01134371e-05
9.50859421e-07
0.000165773198
-1.19600446e-05
8.0263574e-07
0.000166736845
-1.39387872e-05
6.68338453e-07
0.000168191206
-1.60109519e-05
5.44529291e-07
0.000170198395
-1.81100854e-05
4.28670869e-07
0.000172812714
-2.013148e-05
3.18983157e-07
0.000176063928
-2.19215006e-05
2.14576618e-07
0.00017993329
-2.32692725e-05
1.15805099e-07
0.00018432276
-2.39062793e-05
2.48218374e-08
0.000189023291
-2.3524163e-05
-5.39372784e-08
0.000193692998
-2.18208139e-05
-1.13128861e-07
-1.859023e-05
-1.4336696e-07
0.000197870505
0.000434353414
9.92404929e-08
6.57165552e-05
0.000356543649
2.71144046e-07
7.79881688e-05
0.000294025335
3.64955069e-07
6.27779363e-05
0.000249053416
3.70319997e-07
4.52915469e-05
0.000218750944
2.75978063e-07
3.06652799e-05
0.000199289543
7.35289868e-08
1.98536809e-05
0.000187053642
-2.41529334e-07
1.26472516e-05
0.000179322776
-6.72554539e-07
8.1539616e-06
0.000174303975
-1.22395989e-06
5.44951916e-06
0.000170898296
-1.90197411e-06
3.84380372e-06
0.000168470743
-2.71462679e-06
2.87736009e-06
0.000166672751
-3.67188181e-06
2.2689037e-06
0.000165321532
-4.78569837e-06
1.85869554e-06
0.000164328537
-6.06978113e-06
1.55972537e-06
0.000163660602
-7.53898453e-06
1.32531592e-06
0.000163319941
-9.2081555e-06
1.13052262e-06
0.000163334783
-1.10899982e-05
9.61718191e-07
0.000163755358
-1.31915276e-05
8.10908118e-07
0.000164652158
-1.55084305e-05
6.72842685e-07
0.000166113939
-1.80164068e-05
5.43673739e-07
0.000168242197
-2.06587695e-05
4.20424909e-07
0.000171140049
-2.33302549e-05
3.00923281e-07
0.000174892487
-2.58580363e-05
1.84097351e-07
0.00017953219
-2.79795743e-05
7.0597323e-08
0.000184989593
-2.93274112e-05
-3.62722586e-08
0.00019103227
-2.94374314e-05
-1.29409274e-07
0.000197204412
-2.77975267e-05
-1.95430746e-07
-2.39870446e-05
-2.16060981e-07
0.000202817286
0.000434333667
4.25404532e-08
6.57230335e-05
0.000356473179
1.27247228e-07
7.80043854e-05
0.000293882711
1.56258464e-07
6.27991658e-05
0.000248825366
1.1457438e-07
4.53130905e-05
0.000218428781
-1.23197392e-08
3.06848832e-05
0.000198866292
-2.35281739e-07
1.98712999e-05
0.000186522667
-5.6139196e-07
1.26634882e-05
0.000178677094
-9.9623145e-07
8.16924935e-06
0.000173535914
-1.54702037e-06
5.46424086e-06
0.000169999064
-2.2234179e-06
3.85829298e-06
0.000167430206
-3.0375046e-06
2.89173579e-06
0.000165479361
-4.00416649e-06
2.28312914e-06
0.000163962496
-5.14148376e-06
1.87264972e-06
0.000162790412
-6.47090945e-06
1.57321226e-06
0.000161930598
-8.01720175e-06
1.33803098e-06
0.000161388323
-9.80786801e-06
1.14198783e-06
0.000161198791
-1.18716546e-05
9.71188075e-07
0.000161425439
-1.4235427e-05
8.17250951e-07
0.00016216106
-1.69184584e-05
6.74405914e-07
0.000163529396
-1.99228978e-05
5.38155136e-07
0.000165683469
-2.32176243e-05
4.04781404e-07
0.000168797717
-2.67159314e-05
2.71427666e-07
0.000173046205
-3.02432191e-05
1.36693952e-07
0.000178558751
-3.34938392e-05
1.71871691e-09
0.000185347033
-3.59876662e-05
-1.28028432e-07
0.000193193236
-3.70423768e-05
-2.41259631e-07
0.000201510513
-3.58003907e-05
-3.14414886e-07
-3.14244506e-05
-3.1693152e-07
0.000209264848
0.000434315822
-2.09004776e-09
6.57288089e-05
0.000356408915
1.50661106e-08
7.8019089e-05
0.00029375212
-5.30943603e-09
6.28183637e-05
0.000248615836
-8.17962729e-08
4.53326547e-05
0.000218131128
-2.30491745e-07
3.07028808e-05
0.00019847253
-4.64212877e-07
1.98875291e-05
0.000186024524
-7.91673506e-07
1.26782879e-05
0.000178065492
-1.22027187e-06
8.1830714e-06
0.000172800345
-1.75945944e-06
5.47758591e-06
0.000169127081
-2.42162968e-06
3.87147623e-06
0.000166407009
-3.22229468e-06
2.90486201e-06
0.000164287427
-4.18074313e-06
2.29615789e-06
0.000162581337
-5.32084413e-06
1.88545005e-06
0.000161196678
-6.67180893e-06
1.58555802e-06
0.000160098838
-8.26891027e-06
1.34954809e-06
0.000159292863
-1.01539509e-05
1.15205764e-06
0.00015881743
-1.23750252e-05
9.78803008e-07
0.000158746015
-1.49848305e-05
8.208182e-07
0.000159192355
-1.80363017e-05
6.7150308e-07
0.000160317788
-2.15735867e-05
5.25255979e-07
0.000162338045
-2.56148991e-05
3.770167e-07
0.00016552397
-3.01244228e-05
2.22566902e-07
0.000170185648
-3.49645356e-05
5.96373075e-08
0.000176626392
-3.98248121e-05
-1.0977239e-07
0.000185044079
-4.41303422e-05
-2.7501193e-07
0.000195342068
-4.69264046e-05
-4.13964412e-07
0.000206831484
-4.68132134e-05
-4.76596858e-07
-4.21161683e-05
-4.23502623e-07
0.0002179467
0.000434299458