/*--------------------------------*- C++ -*----------------------------------*\
| =========                 |                                                 |
| \\      /  F ield         | foam-extend: Open Source CFD                    |
|  \\    /   O peration     | Version:     4.1                                |
|   \\  /    A nd           | Web:         http://www.foam-extend.org         |
|    \\/     M anipulation  |                                                 |
\*---------------------------------------------------------------------------*/
FoamFile
{
    version     2.0;
    format      ascii;
    class       volScalarField;
    location    "0.75";
    object      rAU;
}
// * * * * * * * * * * * * * * * * * * * * * * * * * * * * * * * * * * * * * //

dimensions      [0 0 1 0 0 0 0];

internalField   nonuniform List<scalar> 
35840
(
0.000714285866
0.000836637864
0.0009245491
0.000999613805
0.0010538658
0.00109046566
0.00111504934
0.0011317911
0.00114332386
0.00115144709
0.00115736935
0.00116184437
0.00116533266
0.00116812175
0.0011703958
0.00117227632
0.00117384696
0.00117510609
0.00117616465
0.00117707652
0.00117786746
0.00117855955
0.00117917197
0.00117972154
0.00118022304
0.00118068945
0.00118113205
0.00118156051
0.000739083901
0.000819497789
0.000880892376
0.000951173244
0.00101612451
0.00106944675
0.00111047049
0.00114132072
0.0011644323
0.00118186399
0.00119522706
0.00120568248
0.00121402564
0.001220799
0.00122637698
0.00123102202
0.00123492243
0.00123814859
0.0012408795
0.00124314253
0.0012450222
0.00124668227
0.00124816323
0.00124950064
0.00125072585
0.00125186636
0.00125294613
0.00125398577
0.000753175806
0.000833323044
0.000878398579
0.000929314417
0.000978234678
0.00102100081
0.00105596514
0.00108369744
0.00110556905
0.00112291299
0.00113682552
0.00114813934
0.00115745771
0.00116521546
0.00117173047
0.00117723881
0.0011819191
0.00118590959
0.00118931991
0.00119216803
0.00119438857
0.00119630132
0.00119802727
0.00119960319
0.00120106178
0.00120243184
0.00120373844
0.00120500297
0.000760309197
0.000850113059
0.000895623457
0.000941324636
0.000982256639
0.0010167593
0.00104457511
0.00106663014
0.0010842286
0.00109849876
0.0011102808
0.00112016407
0.00112855197
0.00113572561
0.00114188981
0.00114720052
0.00115178099
0.00115573166
0.00115913641
0.00116206674
0.00116422875
0.00116602505
0.00116766987
0.001169195
0.00117062932
0.00117199852
0.00117332497
0.00117462752
0.000763382833
0.000860199614
0.000909774899
0.000956400933
0.000995496816
0.00102638236
0.00104993174
0.00106781496
0.0010816896
0.00109281444
0.00110203363
0.00110987516
0.00111665764
0.0011225759
0.00112775715
0.00113229252
0.00113625365
0.00113970099
0.00114268789
0.00114525416
0.00114689653
0.00114831835
0.00114964626
0.00115090525
0.00115211878
0.00115330808
0.00115449161
0.00115568457
0.000765074518
0.000866247131
0.000919348434
0.000968014612
0.00100750852
0.00103741067
0.00105911527
0.00107478275
0.00108639092
0.00109537884
0.00110267785
0.00110884376
0.00111418944
0.00111888717
0.00112303444
0.00112669146
0.00112990099
0.0011326982
0.00113511507
0.00113694986
0.00113792953
0.00113885485
0.00113974531
0.00114062097
0.00114150129
0.00114240411
0.00114334481
0.00114433555
0.000766122066
0.000870082143
0.000925796625
0.0009763588
0.00101677596
0.00104668565
0.00106772793
0.00108235423
0.00109276134
0.00110052274
0.00110664428
0.00111171826
0.00111607165
0.00111987804
0.00112322883
0.00112617417
0.0011287451
0.00113096486
0.00113285419
0.00113367734
0.00113411374
0.00113454361
0.00113498506
0.00113545701
0.001135978
0.00113656504
0.00113723247
0.00113799106
0.00076681752
0.000872665636
0.000930310603
0.000982462654
0.00102385175
0.00105409048
0.00107495663
0.00108909581
0.00109886362
0.00110593368
0.00111136691
0.00111578263
0.00111951929
0.00112275366
0.00112557585
0.0011280321
0.00113014813
0.00113194123
0.00113308927
0.00113312261
0.00113310691
0.0011331125
0.00113316003
0.00113327084
0.00113346567
0.0011337634
0.0011341797
0.00113472589
0.000767311266
0.000874506104
0.000933600908
0.000987055425
0.00102934994
0.00106002931
0.0010809439
0.00109487187
0.00110428896
0.00111095036
0.00111596382
0.00111997196
0.00112332283
0.00112619568
0.00112867936
0.0011308169
0.00113262982
0.00113404504
0.00113410668
0.00113372768
0.00113335895
0.00113302458
0.0011327502
0.00113256196
0.00113248519
0.00113254294
0.00113275429
0.00113313285
0.000767679674
0.000875876453
0.000936083445
0.000990602159
0.00103370914
0.00106486508
0.0010859494
0.00109982739
0.00110906414
0.00111548158
0.0011202292
0.00112397235
0.0011270696
0.0011297037
0.00113196308
0.00113388813
0.0011354964
0.00113592411
0.00113528491
0.00113462625
0.00113397626
0.00113336517
0.00113282492
0.00113238817
0.00113208674
0.00113194977
0.00113200163
0.0011322598
0.000767965027
0.000876934066
0.000938014263
0.000993407755
0.00103723183
0.00106886321
0.00109018437
0.00110411549
0.00111328629
0.00111957144
0.00112415643
0.0011277281
0.00113065641
0.00113312905
0.00113523538
0.0011370141
0.00113779167
0.00113716851
0.00113630691
0.0011354122
0.00113451875
0.00113366363
0.00113288627
0.00113222743
0.00113172732
0.00113142333
0.00113134713
0.00113152186
0.00076819276
0.000877774749
0.000939555786
0.000995675342
0.00104012806
0.00107221478
0.00109380719
0.00110785859
0.00111704444
0.00112327999
0.0011277805
0.00113125209
0.00113407593
0.00113644542
0.00113845177
0.00113953047
0.00113908758
0.00113811424
0.00113705084
0.00113593542
0.00113480882
0.00113371569
0.0011327043
0.00113182536
0.00113112988
0.00113066614
0.00113047585
0.00113059014
0.000768378853
0.00087845904
0.000940813762
0.000997542833
0.00104254639
0.00107505993
0.00109693796
0.00111115266
0.00112041155
0.00112666067
0.00113113933
0.00113457014
0.00113734462
0.00113966186
0.00114108252
0.00114089247
0.00113991239
0.00113877014
0.00113750769
0.0011361683
0.0011347994
0.00113345399
0.00113219067
0.00113107248
0.0011301643
0.00112952894
0.00112922198
0.0011292859
0.000768533713
0.00087902656
0.000941858953
0.000999105676
0.00104459345
0.00107750272
0.00109966868
0.00111407347
0.00112344697
0.00112975854
0.00113426666
0.00113770783
0.00114048266
0.00114231757
0.00114246842
0.00114160776
0.00114049706
0.00113918437
0.00113771466
0.00113613561
0.00113450105
0.00113287296
0.00113132196
0.00112992623
0.00112876858
0.00112793136
0.00112748945
0.00112750179
0.000768664344
0.000879504039
0.000942739843
0.00100043099
0.0010463465
0.00107962085
0.00110207009
0.00111668085
0.00112619876
0.0011326109
0.00113719114
0.00114068757
0.00114307343
0.00114368725
0.00114309809
0.00114215225
0.00114091012
0.00113941985
0.0011377276
0.00113588407
0.00113394881
0.00113199309
0.00113010122
0.00112836988
0.00112690498
0.00112581532
0.00112520301
0.0011251511
0.000768775575
0.00087990994
0.000943490306
0.0010015666
0.00104786193
0.00108147244
0.00110419635
0.00111902165
0.0011287052
0.00113524784
0.00113993598
0.00114312558
0.00114438438
0.00114425223
0.00114362849
0.00114260007
0.00114122426
0.00113954666
0.00113761214
0.00113547223
0.00113319067
0.00113084765
0.00112854254
0.00112639431
0.00112453859
0.00112312012
0.00112227985
0.00112213681
0.000768870809
0.000880257277
0.000944134394
0.00100254692
0.00104918102
0.00108310085
0.00110608856
0.00112113181
0.00113099578
0.00113769236
0.00114214319
0.00114433583
0.00114489843
0.00114478336
0.00114413223
0.00114302596
0.00114151573
0.00113964139
0.00113744309
0.00113496979
0.00113228658
0.00112948093
0.00112666787
0.00112399253
0.00112162847
0.00111976938
0.00111861217
0.00111831153
0.000768952486
0.000880555376
0.000944689397
0.00100339691
0.00105033403
0.00108453813
0.00110777725
0.00112303798
0.00113309198
0.00113960726
0.00114321535
0.00114480531
0.00114543308
0.00114534685
0.00114468036
0.001143506
0.00114186563
0.00113978923
0.00113730733
0.00113446136
0.00113131291
0.00112795295
0.0011245109
0.00112116131
0.00111812533
0.00111566319
0.00111403686
0.00111349478
0.000769022386
0.000880811019
0.000945167872
0.00100413471
0.001051343
0.00108580763
0.00110928447
0.00112475886
0.00113467396
0.00114051207
0.00114364039
0.00114533552
0.00114604388
0.00114600509
0.00114534315
0.00114411916
0.00114236186
0.00114008652
0.00113730803
0.00113405275
0.00113037064
0.00112634889
0.00112212662
0.00111790866
0.00111397403
0.00111067115
0.00110833479
0.00110744407
0.000769081837
0.000881029225
0.000945579029
0.00100477355
0.00105222386
0.00108692596
0.00111062534
0.00112599008
0.00113539262
0.00114088875
0.00114415105
0.00114596892
0.00114678074
0.00114681688
0.00114619009
0.00114494748
0.00114310073
0.00114064455
0.0011375703
0.00113387906
0.00112959679
0.00112479374
0.00111960758
0.00111426884
0.00110912279
0.00110457344
0.00110124993
0.0010997963
0.000769131856
0.000881213789
0.000945929714
0.00100532307
0.001052988
0.0010879045
0.00111151109
0.00112651559
0.00113571528
0.00114136145
0.00114477555
0.00114674046
0.00114768701
0.00114783618
0.0011472885
0.00114607507
0.00114418668
0.00114159113
0.00113824622
0.00113411413
0.00112917927
0.00112347317
0.00111710961
0.00111032902
0.00110350122
0.00109721761
0.00109240489
0.00109002647
0.000769173265
0.000881367676
0.000946225132
0.00100579043
0.00105362994
0.00108847205
0.00111184898
0.00112677903
0.00113613224
0.00114194483
0.00114553362
0.00114767638
0.00114879755
0.00114910952
0.00114870076
0.00114758535
0.00114573003
0.00114306963
0.00113951793
0.00113498059
0.001129375
0.00112266124
0.00111489013
0.00110627303
0.00109711657
0.00108838515
0.00108129191
0.00107736442
0.000769205378
0.000881493241
0.000946464657
0.00100609837
0.0010539265
0.00108864019
0.00111205042
0.00112712634
0.00113664683
0.00114264512
0.00114643538
0.00114879232
0.00115013608
0.00115067245
0.00115047958
0.00114955534
0.0011478416
0.00114523583
0.00114159785
0.00113675776
0.00113053371
0.00112276527
0.00111337432
0.00110233372
0.00109014237
0.00107785141
0.00106717652
0.00106057342
0.000769210613
0.000881539891
0.000946550147
0.00100619028
0.00105396797
0.00108878076
0.00111232023
0.00112755258
0.0011372548
0.00114345927
0.00114747988
0.00115009098
0.00115171148
0.00115254418
0.00115266079
0.00115204686
0.00115062226
0.00114824731
0.00114472188
0.00113978396
0.00113311682
0.00112437498
0.00111316675
0.00109924009
0.00108303006
0.00106553508
0.00104897547
0.00103736549
0.000769196973
0.000881518319
0.000946524306
0.00100620337
0.00105405408
0.00108897265
0.00111264859
0.00112804675
0.00113794405
0.00114437426
0.00114865364
0.00115155945
0.0011535136
0.00115472111
0.00115525383
0.00115509292
0.00115414507
0.00115224172
0.00114912704
0.00114443979
0.00113769696
0.00112829448
0.00111520379
0.00109809421
0.00107673057
0.00105175688
0.00102542036
0.00100413944
0.00076918858
0.000881501185
0.00094652281
0.00100624743
0.00105417594
0.00108920435
0.0011130214
0.00112859193
0.00113869457
0.00114536662
0.00114992952
0.00115316711
0.00115550921
0.00115716988
0.00115823042
0.00115868017
0.00115842935
0.00115730131
0.0011550075
0.00115110587
0.00114494419
0.00113534227
0.00112102409
0.00110065389
0.00107277215
0.00103684695
0.000994693178
0.000958211654
0.000769184603
0.000881497329
0.000946540619
0.00100631451
0.00105432258
0.00108946157
0.0011134206
0.00112916575
0.00113947885
0.00114640272
0.00115126656
0.00115486441
0.0011576392
0.00115982159
0.0011615135
0.00116272918
0.00116340715
0.00116339906
0.00116243564
0.00116006387
0.00115550349
0.00114700759
0.00113306111
0.00111078413
0.00107623837
0.00102529429
0.000958162338
0.000905196345
0.000769184159
0.000881503613
0.000946571988
0.00100639571
0.0010544815
0.00108972773
0.00111382485
0.00112974119
0.00114026298
0.00114743998
0.00115261121
0.00115658388
0.00115981852
0.00116256937
0.00116497006
0.00116707756
0.00116888771
0.00117032835
0.00117122888
0.00117125729
0.00116948164
0.00116449357
0.00115440794
0.0011354282
0.00110117106
0.00104239689
0.000953572315
0.000876928782
0.000739802794
0.000821721164
0.000884287358
0.000955197551
0.00102016426
0.00107304418
0.00111337937
0.00114347993
0.00116589825
0.001182744
0.0011956383
0.00120573323
0.00121380872
0.00122039109
0.00122584027
0.00123040662
0.00123426875
0.00123755845
0.00124037649
0.00124280249
0.00124490144
0.00124672782
0.00124832827
0.00124974345
0.00125100911
0.00125215699
0.0012532152
0.00125420856
0.000752948652
0.000758101187
0.000763154179
0.000796315894
0.000843043893
0.000894039024
0.000942836815
0.000986199757
0.00102313487
0.00105383081
0.00107906944
0.00109981832
0.00111697539
0.00113127943
0.00114330897
0.00115350749
0.00116221308
0.00116968558
0.0011761282
0.00118170347
0.00118654462
0.00119076338
0.00119445557
0.0011977049
0.0012005856
0.00120316421
0.00120550069
0.00120764911
0.000770706243
0.000770885847
0.000754231141
0.000761612368
0.000782824326
0.000811821286
0.000843666672
0.000875074737
0.000904269997
0.000930429605
0.00095334203
0.000973171203
0.000990251648
0.00100495732
0.00101764064
0.00102860966
0.00103812334
0.00104639578
0.00105360378
0.00105989453
0.0010653923
0.00107020377
0.00107442213
0.00107813018
0.00108140257
0.00108430745
0.00108690748
0.00108926049
0.000779771278
0.000790745404
0.00077425185
0.000776095875
0.000787817368
0.000805266714
0.000825333653
0.000845959822
0.000865985375
0.000884761568
0.000901959414
0.000917479641
0.000931363065
0.000943718565
0.00095468152
0.000964392041
0.000972983581
0.000980577984
0.00098728442
0.000993200218
0.000998412437
0.00100299959
0.00100703329
0.00101057963
0.00101370038
0.00101645385
0.0010188954
0.00102107781
0.000783420985
0.000802129921
0.000790104058
0.000794030405
0.000805255236
0.000819678275
0.0008348566
0.000849620069
0.000863568024
0.000876576758
0.000888609838
0.000899676349
0.000909808929
0.000919048823
0.000927440999
0.000935033135
0.000941874534
0.000948014953
0.000953503799
0.000958389685
0.000962720245
0.000966542153
0.000969901259
0.000972842861
0.000975411959
0.000977653436
0.000979612106
0.000981332607
0.000785374267
0.000808600717
0.000800136399
0.000806891507
0.000819982508
0.000834971453
0.000849340424
0.000862152656
0.000873378076
0.000883265312
0.000892080256
0.000900037742
0.000907287871
0.000913924446
0.00092000299
0.000925557292
0.000930610478
0.000935181489
0.000939288634
0.000942951406
0.000946191271
0.000949031995
0.000951499764
0.000953623256
0.000955433646
0.000956964542
0.0009582518
0.000959333168
0.000786565838
0.000812610627
0.000806647861
0.0008156554
0.000830620804
0.000846906249
0.000861840423
0.000874484049
0.000884920234
0.00089356187
0.000900844265
0.000907127136
0.000912668609
0.000917634764
0.00092212441
0.000926193258
0.00092987179
0.000933177055
0.00093612005
0.000938710113
0.000940957442
0.000942874495
0.000944476836
0.000945783635
0.000946817945
0.000947606779
0.000948180978
0.000948574816
0.000787349345
0.000815282395
0.000811115078
0.000821859274
0.000838379875
0.00085590531
0.000871656201
0.000884668854
0.000895071446
0.000903353963
0.000910037024
0.000915559548
0.000920244879
0.000924308414
0.000927883797
0.000931049642
0.000933850087
0.000936309048
0.000938439617
0.000940250029
0.000941747413
0.000942940131
0.000943839355
0.000944460126
0.000944822071
0.0009449498
0.000944872974
0.00094462598
0.000787904145
0.000817174766
0.000814331982
0.000826431632
0.000844229947
0.000862841214
0.000879396919
0.000892906457
0.000903524619
0.000911792362
0.000918285959
0.000923494702
0.000927782697
0.000931395976
0.00093449003
0.000937158249
0.000939454055
0.000941406504
0.000943030764
0.00094433503
0.000945324965
0.000946006728
0.000946389097
0.000946485051
0.000946312943
0.000945729931
0.000945101591
0.000944464986
0.000788317967
0.000818580172
0.000816742123
0.00082991487
0.000848771104
0.00086832744
0.000885634449
0.000899668047
0.000910594743
0.000918991239
0.000925476097
0.000930577531
0.000934690864
0.000938084985
0.00094093099
0.00094333214
0.000945347382
0.000947008048
0.000948329279
0.000949317617
0.000949976077
0.00095030774
0.000949736442
0.000948832348
0.000947855074
0.000946672511
0.000945657264
0.00094484649
0.000788638815
0.000819664488
0.000818609786
0.000832645391
0.00085238444
0.000872763765
0.000890761934
0.000905317552
0.00091659675
0.000925198674
0.000931773183
0.000936879416
0.000940938528
0.000944238745
0.00094696438
0.000949226795
0.000951088951
0.000952583076
0.000953722873
0.000954511743
0.000954268233
0.000953324867
0.00095164058
0.000949813847
0.000948124564
0.000946623219
0.000945356758
0.000944366086
0.000788895434
0.00082052734
0.000820098711
0.000834839305
0.0008553214
0.000876418774
0.000895048034
0.000910110384
0.000921763803
0.000930619533
0.000937349281
0.000942535924
0.000946621642
0.000949911093
0.000952600177
0.000954807395
0.000956599073
0.00095800769
0.000958837149
0.000958114051
0.000956459437
0.000954245489
0.00095204951
0.000949934637
0.000947964771
0.000946202961
0.000944708729
0.000943534625
0.000789105722
0.000821230929
0.00082131352
0.00083663917
0.000857752745
0.000879479068
0.000898682677
0.000914229649
0.000926265654
0.000935406944
0.000942339773
0.000947664689
0.000951840535
0.00095518556
0.000957905516
0.000960125032
0.000961913132
0.000962411065
0.000961634554
0.000959360336
0.000956942337
0.000954450632
0.000951957341
0.000949537798
0.000947270066
0.00094523284
0.000943501842
0.000942145023
0.000789281247
0.000821815579
0.000822323167
0.000838141336
0.000859796957
0.000882077177
0.000901803372
0.000917809897
0.000930228508
0.000939676031
0.000946847985
0.000952357927
0.00095667775
0.000960136728
0.000962948825
0.000965243744
0.000965598682
0.000964427076
0.000962193435
0.000959694717
0.000957007256
0.000954208893
0.000951382423
0.00094861707
0.000946007976
0.000943653569
0.000941650766
0.000940088287
0.000789429752
0.000822308286
0.00082317432
0.000839412294
0.000861537641
0.000884308599
0.000904511022
0.000920951422
0.000933747627
0.000943514411
0.00095095311
0.000956686976
0.000961198075
0.000964824776
0.000967523377
0.000968243957
0.000966914462
0.000964897329
0.000962474947
0.000959728911
0.000956739277
0.00095359084
0.000950377389
0.000947203842
0.000944185973
0.000941447294
0.000939112812
0.000937299712
0.000789556551
0.000822727585
0.000823899293
0.00084049877
0.000863034572
0.000886242775
0.000906880184
0.000923729377
0.000936895063
0.000946988767
0.00095471563
0.000960706197
0.000965450928
0.000968667866
0.000969887691
0.000968964347
0.000967370548
0.000965215433
0.000962587355
0.000959566287
0.000956233561
0.000952679296
0.000949008007
0.000945341978
0.000941821764
0.000938602897
0.000935848009
0.00093371396
0.000789665371
0.000823086486
0.000824520883
0.000841434056
0.000864330876
0.000887930478
0.000908966029
0.00092619981
0.000939724781
0.000950149067
0.00095818042
0.000964455407
0.000968582717
0.000970459032
0.000970393753
0.000969458627
0.000967791057
0.000965491954
0.000962642477
0.000959317042
0.000955594617
0.000951567668
0.000947349976
0.000943082231
0.000938934312
0.000935102592
0.000931800557
0.000929228261
0.000789758878
0.000823394295
0.000825055428
0.000842242136
0.00086545786
0.00088940884
0.000910809094
0.00092840394
0.000942276296
0.000953031221
0.000961378763
0.000966914201
0.00096987197
0.000970965835
0.000970951906
0.000970015327
0.000968281723
0.000965840057
0.000962759117
0.000959102446
0.000954941377
0.000950365536
0.00094549433
0.000940486304
0.000935544981
0.000930918404
0.000926878004
0.000923711591
0.00078983901
0.000823657783
0.000825514794
0.00084294044
0.000866438302
0.000890704874
0.000912438748
0.000930371304
0.000944577126
0.000955579997
0.000963219569
0.000967775354
0.000970384324
0.000971588189
0.000971646085
0.000970729471
0.000968949329
0.000966378281
0.000963066981
0.000959061003
0.000954415452
0.00094920882
0.000943558746
0.000937637697
0.000931685477
0.000926013093
0.000920954761
0.000916984593
0.000789907211
0.000823881982
0.000825907737
0.000843541747
0.000867288783
0.000891838038
0.000913875784
0.000932122017
0.000946393509
0.000956871415
0.000963725656
0.000968282777
0.000971049708
0.000972391459
0.00097255407
0.000971693609
0.000969903337
0.000967234132
0.000963711975
0.000959355671
0.000954191931
0.000948274421
0.000941705344
0.000934660668
0.000927414219
0.000920309758
0.000913893303
0.00090878169
0.000789964586
0.000824070737
0.000826240856
0.000844055542
0.000868021401
0.000892822198
0.000915134304
0.000933310405
0.000947214764
0.000957171024
0.000964208303
0.000968956307
0.000971912768
0.000973431986
0.000973746708
0.000972996748
0.00097125461
0.000968544736
0.0009648604
0.000960181538
0.000954491673
0.000947799559
0.000940166899
0.000931750817
0.000922817024
0.000913818583
0.000905503014
0.000898730317
0.000790012016
0.000824227102
0.000826519294
0.000844489054
0.000868645106
0.000893580036
0.000915814511
0.000933748188
0.000947465492
0.000957606391
0.000964850153
0.000969820182
0.000973006786
0.000974754984
0.000975285323
0.000974721295
0.000973112844
0.000970454315
0.000966698865
0.000961772964
0.000955596616
0.00094810499
0.000939282211
0.000929222272
0.000918097542
0.0009065724
0.000895561362
0.000886299994
0.000790028322
0.000824348595
0.000826736106
0.000844785874
0.000868981318
0.000893878813
0.000915959022
0.00093394406
0.000947834362
0.000958180332
0.000965657863
0.000970886479
0.0009743516
0.000976391553
0.000977217192
0.000976937595
0.00097558107
0.000973110044
0.000969431684
0.000964406811
0.000957867174
0.000949633516
0.000939556433
0.000927499919
0.000913682866
0.000898725527
0.000883790649
0.000870604462
0.000790010985
0.000824368159
0.000826789224
0.000844854134
0.000869022857
0.000893906692
0.000916099062
0.000934234855
0.000948314084
0.000958886285
0.000966626478
0.00097215323
0.000975950508
0.000978353933
0.000979569176
0.000979695717
0.000978744864
0.000976650251
0.000973272146
0.000968398371
0.000961749006
0.000952984731
0.000941682465
0.000927465311
0.000910196396
0.000890378878
0.000869479849
0.00084979549
0.00078998985
0.000824315576
0.000826729682
0.00084481223
0.000869029147
0.000893996242
0.000916310116
0.000934607579
0.000948889881
0.000959707849
0.000967738342
0.000973602385
0.000977786793
0.000980629932
0.000982339148
0.000983012799
0.000982655256
0.000981182301
0.00097841706
0.00097407775
0.000967760768
0.000958924122
0.000946643157
0.000929995051
0.000908536342
0.000882317813
0.000851819827
0.000819506923
0.000789975364
0.000824282441
0.000826698963
0.000844807204
0.000869079142
0.000894135646
0.000916577268
0.000935043877
0.000949539552
0.000960618559
0.000968962388
0.000975198193
0.000979820558
0.000983177259
0.000985486428
0.000986857734
0.000987305397
0.000986749347
0.000985002658
0.000981742966
0.00097646509
0.000968226356
0.000955472121
0.000936754823
0.000910670084
0.000875631488
0.000830249756
0.000779610187
0.000789966724
0.000824265818
0.000826692007
0.000844831444
0.00086916225
0.000894310753
0.000916882164
0.000935520433
0.000950233924
0.000961582293
0.000970254261
0.000976886663
0.00098198684
0.000985919148
0.000988922983
0.000991134855
0.000992602001
0.000993283091
0.000993032381
0.000991561095
0.000988334001
0.000981893247
0.000970127663
0.000951291278
0.000921626865
0.000876113863
0.000810469269
0.000747386065
0.000789962973
0.000824262463
0.000826703231
0.000844876525
0.000869266568
0.000894505429
0.000917203531
0.000936009741
0.000950937875
0.000962554525
0.000971557713
0.000978596846
0.000984196267
0.000988743333
0.000992508679
0.000995671487
0.000998337638
0.00100054677
0.00100226513
0.00100335838
0.00100329206
0.00100027944
0.000992983345
0.000978917449
0.000952999779
0.000906647777
0.00083079108
0.000767292392
0.000754520427
0.000837737458
0.000885278017
0.000937747956
0.00098716386
0.0010295623
0.00106360915
0.00109018408
0.00111087929
0.00112714491
0.00114012455
0.0011506616
0.00115935237
0.00116661722
0.0011727576
0.00117799371
0.00118248993
0.00118637223
0.00118973991
0.0011926734
0.00119523951
0.00119749502
0.0011994891
0.001201265
0.00120286114
0.00120431192
0.0012056481
0.00120689719
0.000771501795
0.000773526362
0.00075852178
0.000767402832
0.000789782934
0.000819507653
0.000851607725
0.000882857005
0.000911602226
0.000937150552
0.000959396148
0.000978575773
0.000995066606
0.0010092626
0.00102152179
0.00103214986
0.00104139971
0.00104947809
0.0010565545
0.00106276946
0.00106824141
0.00107307192
0.00107734969
0.00108115347
0.00108455405
0.00108761575
0.00109039731
0.00109295246
0.000791454373
0.000787121539
0.00074791014
0.000730793799
0.000728397131
0.000736331656
0.000750603063
0.000768067955
0.000786671084
0.000805119304
0.000822627157
0.000838787842
0.0008534541
0.000866630889
0.000878402546
0.000888888824
0.00089821895
0.000906517768
0.000913899834
0.000920467962
0.000926313867
0.000931519637
0.000936159377
0.000940300725
0.000944006107
0.000947333677
0.000950337969
0.000953070274
0.000801365291
0.000808451172
0.000768052415
0.000744584325
0.000732837062
0.000729878356
0.000733016137
0.000739981208
0.000749200758
0.000759604661
0.000770438493
0.000781191783
0.000791545672
0.000801316427
0.000810410651
0.00081879432
0.000826470719
0.000833464887
0.000839813524
0.000845558905
0.000850745417
0.000855417733
0.000859619984
0.000863395489
0.000866786767
0.000869835618
0.000872583194
0.00087506998
0.000805283465
0.000820725659
0.000784169048
0.000761968981
0.000749422915
0.000743741565
0.000742672521
0.000744523557
0.000748238138
0.000753151707
0.000758794178
0.000764820717
0.000770982528
0.000777101278
0.000783050449
0.000788743431
0.000794124349
0.000799160241
0.000803834816
0.000808143802
0.000812091574
0.000815688773
0.000818950693
0.000821896231
0.000824547209
0.000826927905
0.000829064691
0.00083098567
0.000807384921
0.000827656162
0.000794255274
0.000774206837
0.00076307399
0.000757942738
0.000756458193
0.000756996801
0.000758678211
0.000761058251
0.000763888076
0.000767010936
0.000770317261
0.000773720199
0.000777145472
0.000780529479
0.000783819434
0.000786973133
0.000789958231
0.000792751281
0.00079533668
0.000797705643
0.000799855327
0.000801788131
0.000803511148
0.000805035713
0.000806376992
0.000807553544
0.000808669692
0.000831931556
0.00080075279
0.000782422848
0.000772689826
0.000768643481
0.000767830885
0.000768567544
0.000769974028
0.000771654487
0.00077344127
0.000775273051
0.000777132236
0.000779010228
0.000780893614
0.000782762432
0.000784592532
0.000786358406
0.000788035545
0.000789602116
0.000791040014
0.000792335419
0.000793479085
0.000794466475
0.000795297784
0.0007959779
0.00079651625
0.000796926517
0.000809516127
0.000834779121
0.00080519845
0.000788193662
0.000779591908
0.000776512596
0.000776464547
0.000777725062
0.000779401499
0.000781103983
0.000782686165
0.000784119901
0.000785426554
0.000786636604
0.000787772234
0.000788843646
0.000789850666
0.000790785718
0.000791636864
0.000792390391
0.000793032813
0.000793552335
0.000793939939
0.000794190206
0.000794301913
0.000794278447
0.000794128006
0.000793863549
0.00081011729
0.000836797179
0.000808394639
0.000792427333
0.00078474745
0.000782485216
0.000783125726
0.000784922121
0.000786975428
0.000788901952
0.000790568115
0.000791962661
0.000793125663
0.000794106092
0.000794943239
0.000795662404
0.000796276145
0.000796787123
0.000797191207
0.000797480299
0.000797644645
0.000797674692
0.000797562602
0.000797303497
0.000796896483
0.000796345445
0.000795659564
0.000794853475
0.000810566424
0.0008382962
0.000810786252
0.000795642612
0.00078872529
0.000787162171
0.000788415664
0.000790716315
0.000793157387
0.000795359892
0.000797201483
0.000798684934
0.000799864606
0.000800802348
0.000801548237
0.0008021362
0.000802585403
0.000802903286
0.000803088904
0.000803135973
0.000803035454
0.000802777704
0.00080235433
0.000801759806
0.000800992897
0.000800057819
0.000798965089
0.000797731925
0.000810914777
0.000839452582
0.000812637908
0.000798157726
0.000791876874
0.00079091661
0.000792717805
0.000795488836
0.000798312121
0.000800809142
0.000802865127
0.00080449397
0.000805762014
0.000806742073
0.000807493231
0.000808056194
0.000808454748
0.000808699004
0.000808788992
0.000808717998
0.000808475459
0.000808049476
0.000807429068
0.000806606239
0.000805577929
0.000804003995
0.000802351836
0.000800727797
0.000811193321
0.000840372437
0.000814113123
0.000800175653
0.000794430644
0.000793992847
0.000796284047
0.000799492004
0.000802686714
0.000805486612
0.00080778064
0.000809590372
0.000810991412
0.000812065595
0.000812879682
0.000813480196
0.000813894723
0.000814135193
0.0008142016
0.000814085561
0.000813773515
0.000813249572
0.000811619569
0.000809844208
0.000808001667
0.000805773695
0.00080364911
0.000801746938
0.000811421447
0.000841122072
0.000815316095
0.000801829452
0.000796539922
0.000796557453
0.00079928782
0.000802900423
0.000806452661
0.000809557917
0.000812106015
0.00081412328
0.000815692036
0.000816901136
0.000817823562
0.000818510616
0.000818992888
0.000819283377
0.000819381189
0.000819184322
0.000817641317
0.000815940271
0.000813217944
0.000810476368
0.000807824658
0.000805317242
0.000803007591
0.000800945714
0.000811611749
0.000841744537
0.000816315342
0.0008032085
0.000798309955
0.000798726871
0.000801852071
0.000805839043
0.0008097334
0.000813142673
0.000815955728
0.000818201633
0.000819967475
0.00082134743
0.00082241943
0.000823238547
0.000823837555
0.000824229705
0.000823225361
0.000821716681
0.000818872427
0.000815928601
0.000812942155
0.000809973537
0.000807086873
0.000804348891
0.000801826587
0.000799583744
0.0008117727
0.000842268698
0.000817157136
0.000804374136
0.000799814351
0.000800583914
0.000804065432
0.000808399009
0.00081261979
0.000816329299
0.000819414629
0.000821906418
0.000823895043
0.000825478952
0.000826740165
0.000827736699
0.000827841248
0.000826931677
0.000824551425
0.000821730444
0.000818712463
0.000815555726
0.000812323299
0.000809084697
0.00080591622
0.000802899683
0.000800119381
0.000797657292
0.000811910134
0.000842714388
0.000817873454
0.000805369279
0.000801105354
0.000802188152
0.000805992477
0.000810647481
0.000815179228
0.000819183688
0.000822546139
0.000825297993
0.000827532344
0.000829351514
0.000830840989
0.000830725689
0.000829543627
0.000827232604
0.000824562996
0.00082159023
0.000818370189
0.000814963365