/*--------------------------------*- C++ -*----------------------------------*\
| =========                 |                                                 |
| \\      /  F ield         | foam-extend: Open Source CFD                    |
|  \\    /   O peration     | Version:     4.1                                |
|   \\  /    A nd           | Web:         http://www.foam-extend.org         |
|    \\/     M anipulation  |                                                 |
\*---------------------------------------------------------------------------*/
FoamFile
{
    version     2.0;
    format      ascii;
    class       volVectorField;
    location    "0.75";
    object      U;
}
// * * * * * * * * * * * * * * * * * * * * * * * * * * * * * * * * * * * * * //

dimensions      [0 1 -1 0 0 0 0];

internalField   nonuniform List<vector> 
35840
(
(3.94086006 0.268528718 0.261844501)
(3.20795258 0.371832229 0.357379823)
(2.43829386 0.266508129 0.249860468)
(1.72034338 0.156946817 0.141978044)
(1.29366168 0.0888194884 0.0772224553)
(1.05217133 0.051728216 0.0439381856)
(0.893408125 0.0312093663 0.0270959072)
(0.785189997 0.0189987169 0.0180803017)
(0.71165686 0.0115280498 0.0131428157)
(0.659994056 0.00695372708 0.010420094)
(0.621995556 0.0041000973 0.00881168685)
(0.592995712 0.00226871672 0.00773291939)
(0.570210073 0.00106929762 0.00691248545)
(0.551882096 0.000274202441 0.00622855497)
(0.536877911 -0.000255917737 0.0056264362)
(0.524441552 -0.000607386544 0.00508256176)
(0.514043376 -0.000834187143 0.00458686524)
(0.505290529 -0.000971486036 0.0041339299)
(0.497884459 -0.00104267552 0.0037199374)
(0.491585059 -0.00106286768 0.00334169221)
(0.486193172 -0.00104228481 0.00299616552)
(0.481540033 -0.000988460544 0.00268060764)
(0.477479871 -0.000907337111 0.00239271429)
(0.473885305 -0.000803861092 0.0021306264)
(0.470644246 -0.000682443965 0.00189290408)
(0.467657967 -0.000547282293 0.00167848137)
(0.464839982 -0.000402528022 0.00148659837)
(0.462115508 -0.000252325942 0.00131671776)
(4.52124914 0.409954088 0.331399837)
(4.20224465 0.638139256 0.509000029)
(3.63675989 0.543500486 0.40727435)
(2.9428877 0.391297122 0.261504659)
(2.41563982 0.267512993 0.152217456)
(2.06111078 0.181558743 0.0859687126)
(1.80857308 0.124056042 0.050253079)
(1.62429867 0.0850962174 0.0317435638)
(1.49021775 0.0584985167 0.0220714073)
(1.3907678 0.0403667364 0.0169140874)
(1.31471002 0.0279259239 0.0139960577)
(1.25501817 0.0192651249 0.0121381569)
(1.20719361 0.0131373408 0.0107917751)
(1.16820611 0.0087321629 0.00971707414)
(1.1359776 0.00551894377 0.00880533969)
(1.10905523 0.00315047887 0.00800446452)
(1.08638803 0.00139882929 0.00728779981)
(1.06718939 0.00011184357 0.0066398322)
(1.05084365 -0.000813899508 0.00604963868)
(1.0368573 -0.00144986987 0.00550832559)
(1.02482573 -0.00184710464 0.00500843867)
(1.01440942 -0.00204345857 0.00454405256)
(1.00531573 -0.00206840372 0.00411071209)
(0.997289448 -0.0019464073 0.00370516318)
(0.990106061 -0.00169909457 0.00332517659)
(0.983567223 -0.00134669356 0.00296941904)
(0.977497995 -0.000908930861 0.00263731823)
(0.971745356 -0.000405466932 0.00232889846)
(4.44213341 0.221362822 0.337951805)
(4.08278398 0.436519903 0.518818888)
(3.65713684 0.463122722 0.418089068)
(3.13712206 0.408864934 0.275888701)
(2.71978137 0.331904198 0.166457372)
(2.42181608 0.257620409 0.0961039996)
(2.19809247 0.195698654 0.0564738785)
(2.02633985 0.147085201 0.0358923067)
(1.89482985 0.109840444 0.0253529734)
(1.79240445 0.0817080568 0.0198145652)
(1.7105116 0.0606138933 0.0166823319)
(1.64372506 0.044806152 0.0146420085)
(1.58849846 0.0329077078 0.0130956418)
(1.54232642 0.0238822918 0.0118044704)
(1.50338901 0.0169734375 0.0106764218)
(1.47033894 0.0116427831 0.00967327024)
(1.44214772 0.00751320594 0.00877610135)
(1.41800601 0.00432190551 0.00797182923)
(1.39726011 0.00188488849 0.00724837796)
(1.37937141 7.11502732e-05 0.00659394507)
(1.36388413 -0.00121469103 0.00599749205)
(1.35040759 -0.00204447253 0.00544928387)
(1.3386022 -0.00247483512 0.00494127548)
(1.32816807 -0.00255328664 0.00446721151)
(1.31883837 -0.00232247036 0.00402249218)
(1.31037475 -0.00182301496 0.00360399666)
(1.30256457 -0.00109533637 0.00320988142)
(1.29521947 -0.000180616852 0.00283934414)
(4.41370731 0.123371339 0.337928991)
(3.97527266 0.285999453 0.516842952)
(3.52614485 0.346949158 0.410944482)
(3.04826931 0.341774804 0.267055606)
(2.69650762 0.304747266 0.1586878)
(2.46049801 0.256449594 0.089311494)
(2.28810486 0.208575108 0.0503485552)
(2.15600863 0.166306587 0.0306478903)
(2.05355767 0.130923218 0.0211758211)
(1.97168264 0.102103824 0.0166817514)
(1.90389501 0.0789994093 0.0144638362)
(1.84649797 0.0606332412 0.0131647019)
(1.79732881 0.0460776473 0.0121749777)
(1.7549316 0.034531913 0.0112749197)
(1.71824259 0.0253464587 0.0104078784)
(1.68644021 0.0180178976 0.00957169786)
(1.65885261 0.0121686459 0.00877742264)
(1.63490805 0.00752131876 0.0080345897)
(1.6141099 0.00387409963 0.00734707713)
(1.59602175 0.00107997035 0.00671364061)
(1.58025591 -0.00096973675 0.00612975835)
(1.56646522 -0.00235820911 0.0055896523)
(1.55433645 -0.00315224781 0.00508736356)
(1.54358513 -0.0034092144 0.00461745255)
(1.53395196 -0.00318240135 0.00417543842)
(1.5252006 -0.00252476801 0.0037579706)
(1.51711657 -0.00149132702 0.00336282882)
(1.50950701 -0.000140420904 0.00298881725)
(4.40562842 0.0838886185 0.338529957)
(3.92709554 0.205876447 0.518666624)
(3.43458786 0.264644625 0.409524905)
(2.9427472 0.274655188 0.261032938)
(2.60544241 0.257692347 0.150310493)
(2.39689385 0.228002426 0.080599253)
(2.2554778 0.194260904 0.0421467856)
(2.15330767 0.161548227 0.0232694769)
(2.0774081 0.132145722 0.0147407232)
(2.01793124 0.106704058 0.0111876723)
(1.96847181 0.0851521053 0.00984591478)
(1.9257777 0.0671289013 0.00933108272)
(1.88826371 0.0521716985 0.009017911)
(1.85506337 0.0398108139 0.00868227297)
(1.82564408 0.0296194894 0.00827516869)
(1.79962782 0.0212360847 0.00780865067)
(1.77669551 0.0143687008 0.00730967799)
(1.75654718 0.00878980255 0.0068029652)
(1.73889136 0.00432615403 0.00630568502)
(1.72344441 0.000847530716 0.00582747143)
(1.70993143 -0.00174474126 0.00537228355)
(1.69808941 -0.00352758799 0.00494093222)
(1.68766589 -0.00456411224 0.00453226933)
(1.67842055 -0.00491060785 0.00414422748)
(1.67012579 -0.00462213465 0.00377462501)
(1.66256772 -0.0037566285 0.00342162427)
(1.65554758 -0.00237766217 0.00308395154)
(1.64888348 -0.000555908586 0.00276097071)
(4.40178219 0.0613578849 0.339164168)
(3.90242145 0.153224681 0.520512271)
(3.38075375 0.204413594 0.410097086)
(2.8692349 0.221089734 0.258746246)
(2.52753419 0.215766722 0.14597785)
(2.32480736 0.19811566 0.0755279646)
(2.19493163 0.174688002 0.0370205666)
(2.10727737 0.149866333 0.0183387078)
(2.04676625 0.126088649 0.0101157793)
(2.00219544 0.104422574 0.00691278236)
(1.96647452 0.0852126798 0.00592960545)
(1.93606115 0.0684618287 0.00577169867)
(1.90930671 0.0540130985 0.0058076961)
(1.88541987 0.0416439024 0.0058046003)
(1.86401786 0.0311187929 0.00570587834)
(1.84490052 0.0222180624 0.00551959389)
(1.82792574 0.0147513213 0.00527174346)
(1.81295435 0.00856185713 0.00498819445)
(1.79983311 0.00352544548 0.00468861058)
(1.78839186 -0.000454055016 0.00438562857)
(1.77844941 -0.00345129992 0.00408661354)
(1.76981362 -0.00552560765 0.00379547737)
(1.76228767 -0.00672748706 0.00351365444)
(1.75567302 -0.00710503735 0.00324120978)
(1.74977268 -0.00670930566 0.00297763612)
(1.74439474 -0.00559855428 0.00272232254)
(1.73935596 -0.00384129638 0.00247482703)
(1.73448561 -0.00151790293 0.00223502247)
(4.399569 0.0466850133 0.339652811)
(3.88830984 0.117715688 0.521951948)
(3.34833386 0.161231873 0.411267083)
(2.82106275 0.180137075 0.258563689)
(2.47125818 0.181415527 0.144561171)
(2.26672974 0.171543288 0.0734986307)
(2.13930225 0.155463313 0.0347854423)
(2.0569908 0.136744257 0.0160476857)
(2.00351111 0.117628881 0.00782407128)
(1.96672824 0.0993246757 0.00464223218)
(1.93896798 0.0824063326 0.00368807889)
(1.9163336 0.0671014729 0.00357078031)
(1.89696124 0.0534522171 0.00366600884)
(1.87994454 0.0414063287 0.00374159195)
(1.86485885 0.0308698515 0.00373717828)
(1.85151067 0.0217372115 0.00365584125)
(1.83979306 0.0139078597 0.0035189433)
(1.82961612 0.0072946464 0.00334858087)
(1.82087998 0.00182692824 0.00316167657)
(1.8134659 -0.002550431 0.00296917462)
(1.80723787 -0.00588001702 0.00277769532)
(1.80204149 -0.00819573182 0.00259071839)
(1.79770934 -0.0095286711 0.00240954637)
(1.79406427 -0.00991275494 0.00223429586)
(1.79092349 -0.0093899816 0.00206454562)
(1.78810326 -0.00801499059 0.00189971281)
(1.78542406 -0.0058584668 0.0017392775)
(1.78271617 -0.00300895103 0.00158290925)
(4.3982184 0.0366412263 0.340042153)
(3.87962476 0.0929626711 0.523107491)
(3.32764672 0.129535293 0.412493169)
(2.7886535 0.148149954 0.259130546)
(2.43120055 0.15290778 0.144405823)
(2.2229759 0.148086323 0.0729482951)
(2.0947374 0.137293288 0.0341007129)
(2.01373638 0.123304964 0.0153167624)
(1.96299575 0.108029493 0.00705694341)
(1.92980973 0.0926475273 0.00382825274)
(1.90612391 0.0778376263 0.0028128231)
(1.88779566 0.0639639859 0.00262790341)
(1.87279348 0.0512034954 0.0026613704)
(1.86009737 0.0396262329 0.00268920457)
(1.84921085 0.0292446283 0.00265403057)
(1.83990027 0.0200432363 0.00255878116)
(1.83204138 0.0119967371 0.0024231537)
(1.82554219 0.00508038799 0.00226693363)
(1.82030927 -0.000724772782 0.00210460121)
(1.81623648 -0.0054309414 0.00194517616)
(1.81319758 -0.00904422423 0.00179369949)
(1.81104767 -0.0115680876 0.00165221415)
(1.80962453 -0.013008586 0.00152093597)
(1.80875137 -0.0133798915 0.00139914673)
(1.80824096 -0.012710001 0.00128571126)
(1.80790083 -0.0110459953 0.00117939023)
(1.80753972 -0.00845813457 0.00107900413)
(1.80697503 -0.00504210373 0.00098350242)
(4.39732499 0.0293623785 0.340348574)
(3.87390579 0.0747710087 0.524002954)
(3.3137722 0.105372293 0.413533013)
(2.76616597 0.122570121 0.259829909)
(2.4022991 0.128939665 0.144685685)
(2.19017362 0.127293588 0.0729944885)
(2.06003368 0.120207225 0.0340806328)
(1.97868585 0.109789257 0.0152864772)
(1.92871776 0.0975954611 0.00701372131)
(1.8970443 0.0846889038 0.00375379738)
(1.87534641 0.0717590191 0.00268625632)
(1.85930792 0.0592346982 0.00243361706)
(1.84677982 0.0473749395 0.00239336978)
(1.83666094 0.0363335415 0.002349852)
(1.82839973 0.026201345 0.00225072853)
(1.8217268 0.0170334283 0.00210135854)
(1.81649646 0.00886684262 0.00192224181)
(1.81260513 0.00173183538 0.00173296644)
(1.80995433 -0.00434216799 0.00154736717)
(1.80843491 -0.00932390567 0.00137381036)
(1.80791847 -0.0131804191 0.00121644658)
(1.80825563 -0.0158806283 0.00107648016)
(1.80927576 -0.0174003448 0.000953439556)
(1.81078879 -0.0177284636 0.000846010644)
(1.81258916 -0.0168738241 0.000752475583)
(1.81446153 -0.0148718559 0.000671027425)
(1.81618883 -0.0117899084 0.000599884399)
(1.81756183 -0.00773027092 0.000537273903)
(4.39670082 0.023842497 0.340585657)
(3.86995023 0.060860541 0.524688647)
(3.30409494 0.0864351595 0.41436677)
(2.75011237 0.101773952 0.260481031)
(2.38104113 0.108607988 0.145084872)
(2.16530959 0.108813162 0.0732482245)
(2.03296407 0.104214771 0.0342956776)
(1.95057246 0.0963926779 0.0155023578)
(1.90044804 0.0865821643 0.00722950947)
(1.86924661 0.0756929713 0.00395623674)
(1.84845529 0.0643687576 0.00285905623)
(1.83362413 0.0530504673 0.00256262855)
(1.82251241 0.0420366292 0.0024700236)
(1.8139567 0.0315319373 0.00237120813)
(1.80736394 0.0216812521 0.0022177893)
(1.8024384 0.012592804 0.00201748495)
(1.79901883 0.0043543656 0.00179208517)
(1.79699315 -0.00295601006 0.00156177048)
(1.79625896 -0.00926356384 0.00134075782)
(1.79670338 -0.0144935277 0.00113753523)
(1.79819368 -0.0185717221 0.000956073295)
(1.80057216 -0.021428127 0.00079744383)
(1.80365421 -0.0230026401 0.000661103977)
(1.80722915 -0.0232527238 0.000545673984)
(1.8110637 -0.0221621644 0.000449344655)
(1.81490857 -0.0197499215 0.000370079193)
(1.81850809 -0.0160776305 0.000305781952)
(1.82161284 -0.0112542405 0.000254437136)
(4.39624846 0.0195116051 0.340768397)
(3.86710832 0.0498862002 0.525215418)
(3.29711187 0.0712260294 0.415025058)
(2.73833475 0.0845870893 0.261035421)
(2.36508036 0.0912048473 0.145479254)
(2.14617965 0.0923607306 0.0735462934)
(2.01163914 0.0893491364 0.0345663837)
(1.92791773 0.0833432809 0.015773596)
(1.87716634 0.0753070156 0.00750233155)
(1.84587039 0.0659943452 0.00422272836)
(1.82537912 0.0559760106 0.00310878475)
(1.81113986 0.0456720917 0.00278596639)
(1.80083799 0.0353901417 0.00266035547)
(1.79325886 0.0253601245 0.00252517243)
(1.78777563 0.015760673 0.00233440196)
(1.78407193 0.00673808351 0.00209722465)
(1.78197552 -0.0015797775 0.00183626061)
(1.78137004 -0.00907356441 0.00157231558)
(1.7821519 -0.0156258802 0.00132012706)
(1.78420789 -0.0211184158 0.00108830165)
(1.78740223 -0.0254328891 0.000880970526)
(1.79156879 -0.0284550575 0.00069945971)
(1.79650699 -0.0300818886 0.00054343208)
(1.80198079 -0.0302314496 0.000411641802)
(1.80772134 -0.0288546437 0.000302443825)
(1.81343423 -0.0259474942 0.000214023914)
(1.81881157 -0.02156217 0.000144479054)
(1.82354858 -0.0158145199 9.18260119e-05)
(4.39591005 0.0160208275 0.340909619)
(3.86499799 0.0410038381 0.525622892)
(3.29191573 0.0587504983 0.415543189)
(2.72946554 0.0701745985 0.261490758)
(2.35284183 0.0761946205 0.145828107)
(2.13121259 0.0777065023 0.0738291483)
(1.99461379 0.0756322244 0.0348283865)
(1.9094708 0.0708387425 0.0160335299)
(1.85784751 0.0640692301 0.00776147147)
(1.82612369 0.0559351124 0.00447641288)
(1.805556 0.046925228 0.00335069253)
(1.79151751 0.037420568 0.00301022079)
(1.78163699 0.0277175899 0.00286282307)
(1.7746594 0.0180528116 0.00270356546)
(1.76993126 0.00862273033 0.00248771631)
(1.76712075 -0.000401005893 0.00222514328)
(1.76604897 -0.00885967844 0.00193894053)
(1.76659942 -0.0165982182 0.00165035473)
(1.76867182 -0.0234590647 0.00137422695)
(1.77215628 -0.0292796822 0.00111924141)
(1.77691697 -0.0338936283 0.000889668369)
(1.78278104 -0.0371355153 0.000687024373)
(1.78953109 -0.038850066 0.000511221282)
(1.79690152 -0.0389050569 0.00036136694)
(1.80457964 -0.037207399 0.000236217612)
(1.81221323 -0.0337206959 0.000134379567)
(1.8194252 -0.0284817818 5.43554314e-05)
(1.82583571 -0.0216129541 -5.51495448e-06)
(4.39564958 0.0131473222 0.341019577)
(3.86338385 0.0336688786 0.525941484)
(3.28793805 0.0483433458 0.415953441)
(2.72261479 0.0579444617 0.261861092)
(2.34325094 0.063168439 0.146124643)
(2.11928399 0.0646522139 0.0740791493)
(1.98080367 0.063056017 0.035062133)
(1.89424169 0.0590186022 0.0162633631)
(1.84162253 0.0531074113 0.00798821649)
(1.80926519 0.0458095955 0.00469714281)
(1.78836846 0.0375327874 0.00356148986)
(1.77425579 0.0286101754 0.00320753076)
(1.76451635 0.0193145812 0.00304421915)
(1.75786651 0.00987585925 0.00286770108)
(1.75363466 0.000495978107 0.00263386747)
(1.75148014 -0.00863860076 0.00235297008)
(1.75122376 -0.0173461475 0.0020484334)
(1.75275497 -0.0254409569 0.00174150875)
(1.75598271 -0.0327274141 0.00144688982)
(1.76080632 -0.0389972031 0.00117322286)
(1.76709546 -0.0440304121 0.000924830913)
(1.77467441 -0.0476014038 0.000703357063)
(1.78331 -0.0494901065 0.00050894042)
(1.79270367 -0.0494989419 0.000341034213)
(1.80248976 -0.0474748224 0.000198844505)
(1.81224233 -0.0433343945 8.15447003e-05)
(1.82149274 -0.0370891771 -1.17059862e-05)
(1.8297589 -0.0288656894 -8.19158289e-05)
(4.39544376 0.0107439455 0.341106263)
(3.86211492 0.0275189323 0.52619421)
(3.28480988 0.0395489148 0.416282113)
(2.71718872 0.0474705536 0.262163154)
(2.3355638 0.051811528 0.146373525)
(2.10958494 0.0530270958 0.0742943157)
(1.96939887 0.0515911125 0.0352646825)
(1.88146208 0.0479723263 0.0164614156)
(1.82778801 0.0425993192 0.00818205776)
(1.79466471 0.035853434 0.00488472951)
(1.77325822 0.0280662782 0.00374023396)
(1.75886216 0.0195200928 0.00337517363)
(1.74904134 0.0104564976 0.00319927804)
(1.74249523 0.00108912175 0.00300930394)
(1.73854342 -0.00838449921 0.00276155856)
(1.73684526 -0.0177719043 0.00246665698)
(1.73722961 -0.0268755842 0.00214799051)
(1.73960015 -0.0354842854 0.00182649069)
(1.74388404 -0.0433662673 0.00151664885)
(1.74999952 -0.0502654726 0.00122698262)
(1.75783098 -0.055902016 0.000961758197)
(1.76720761 -0.0599784525 0.000722639779)
(1.77788482 -0.0621932359 0.000509887591)
(1.78952983 -0.0622624001 0.000323224645)
(1.80171449 -0.0599494375 0.0001623406)
(1.81391971 -0.0551016012 2.71400015e-05)
(1.82555547 -0.0476883141 -8.22570603e-05)
(1.83599925 -0.0378344452 -0.000165783194)
(4.39527706 0.0087106404 0.341175775)
(3.86109107 0.0223060399 0.526398249)
(3.28228477 0.0320486648 0.41654955)
(2.71278262 0.0384435225 0.262412007)
(2.32925877 0.0418828885 0.146582619)
(2.10152994 0.042688605 0.0744783414)
(1.95979437 0.041198945 0.0354390166)
(1.87053975 0.0377549579 0.0166314918)
(1.81578427 0.0326753156 0.00834773527)
(1.78180378 0.0262519573 0.00504443692)
(1.75974888 0.0187470678 0.00389213342)
(1.74489833 0.0103916263 0.00351770477)
(1.73480501 0.00139118667 0.00333138691)
(1.72816194 -0.00806428798 0.00313044864)
(1.72428995 -0.0177898944 0.00287170333)
(1.72285809 -0.0275954205 0.00256576895)
(1.72371296 -0.0372751466 0.00223562388)
(1.72678359 -0.0465979743 0.00190187962)
(1.73202814 -0.0552986632 0.00157878393)
(1.73939778 -0.0630717623 0.00127463558)
(1.74880634 -0.0695701273 0.000993480335)
(1.76010164 -0.0744103424 0.000736814312)
(1.7730378 -0.0771876299 0.000504852385)
(1.78725071 -0.0775026421 0.000297459143)
(1.80224153 -0.0750013734 0.000114783469)
(1.8173749 -0.0694270451 -4.23706848e-05)
(1.83189973 -0.0606788242 -0.000172494323)
(1.8449989 -0.048866967 -0.000273770071)
(4.39513883 0.00697771232 0.341232702)
(3.86024417 0.0178567012 0.52656633)
(3.28019426 0.025616183 0.416771146)
(2.70911576 0.0306371498 0.262620004)
(2.32396578 0.0331989099 0.146759817)
(2.09469277 0.0335210577 0.074636396)
(1.95153791 0.0318405826 0.0355896696)
(1.86102024 0.0284011533 0.0167784907)
(1.80517031 0.0234336006 0.00849066047)
(1.77026284 0.017154028 0.00518198904)
(1.74744417 0.00976157789 0.00402289377)
(1.73198847 0.00143649696 0.00364043594)
(1.72144603 -0.00765542939 0.00344540218)
(1.71451281 -0.01735401 0.0032357816)
(1.71052015 -0.0274947909 0.00296848659)
(1.70915607 -0.0378987288 0.00265371477)
(1.7102961 -0.0483607431 0.00231406971)
(1.71390828 -0.058637291 0.00196988406)
(1.71999829 -0.0684342169 0.0016350657)
(1.72856979 -0.0773965777 0.0013175126)
(1.73958798 -0.08510295 0.0010208583)
(1.75294163 -0.0910676638 0.000746180791)
(1.76840275 -0.0947552295 0.000493347183)
(1.78558684 -0.0956115915 0.000262079011)
(1.80392021 -0.0931159518 5.28243568e-05)
(1.82262526 -0.0868540045 -0.000132580146)
(1.84073737 -0.0766074256 -0.000290638203)
(1.85716699 -0.0624454555 -0.00041671457)
(4.39502167 0.00549562628 0.341280459)
(3.85952702 0.0140471784 0.526707831)
(3.27842126 0.0200881194 0.416958388)
(2.70599084 0.0238847806 0.262796795)
(2.31942021 0.0256202686 0.146911906)
(2.08876225 0.0254330217 0.0747734399)
(1.94429205 0.0234821907 0.0357210581)
(1.85255695 0.0199356697 0.0169069098)
(1.79560236 0.0149529712 0.00861551271)
(1.75970747 0.00868511709 0.00530210305)
(1.73602048 0.00127334597 0.00413701469)
(1.71981724 -0.00715244536 0.00374772755)
(1.70865251 -0.0164692391 0.0035459158)
(1.70123225 -0.0265526198 0.00332978822)
(1.69690534 -0.0372673187 0.00305590712)
(1.69538777 -0.0484559739 0.00273414029)
(1.69659574 -0.0599252769 0.00238685753)
(1.70055187 -0.0714299277 0.00203401135)
(1.70732984 -0.0826552415 0.00168903662)
(1.71701177 -0.0932003172 0.00135927336)
(1.72964541 -0.102564806 0.00104769264)
(1.74519492 -0.110143931 0.000754585607)
(1.76348362 -0.115238383 0.00047896999)
(1.78413141 -0.117087267 0.000219854011)
(1.80649541 -0.11493238 -2.24803593e-05)
(1.82962984 -0.108119404 -0.000245207262)
(1.85228816 -0.0962332329 -0.000442100521)
(1.87299498 -0.0792506552 -0.000604119422)
(4.39492039 0.00422851332 0.341321556)
(3.85890659 0.0107876459 0.526829606)
(3.27688364 0.0153449163 0.417119742)
(2.70326834 0.0180626581 0.262949697)
(2.31543247 0.0190415046 0.147044311)
(2.08351191 0.0183538863 0.0748936505)
(1.93780702 0.0160975166 0.035836904)
(1.84488888 0.0123800114 0.017020379)
(1.78681709 0.00730189609 0.00872583548)
(1.74987653 0.000957079146 0.00540806731)
(1.72521963 -0.00656727538 0.00423776563)
(1.70812756 -0.0151911732 0.00384332312)
(1.69616332 -0.0248375296 0.00363664953)
(1.68804627 -0.0354247571 0.00341571859)
(1.68314786 -0.0468570386 0.00313692871)
(1.68121962 -0.0590114359 0.00281000086)
(1.68222973 -0.0717212686 0.0024569972)
(1.68627194 -0.0847552486 0.00209744416)
(1.69351172 -0.0977929015 0.00174422535)
(1.70414271 -0.110397884 0.00140398001)
(1.71833801 -0.121992357 0.00107873743)
(1.73618839 -0.131838428 0.00076750888)
(1.7576234 -0.139036104 0.000467691691)
(1.78231593 -0.142550999 0.000176552813)
(1.80957986 -0.14128791 -0.00010685495)
(1.83828259 -0.134225689 -0.000379313215)
(1.86680912 -0.120619178 -0.000631329076)
(1.89313448 -0.100253779 -0.000846878398)
(4.39483133 0.00314987242 0.34135781)
(3.85835975 0.00801162103 0.526936601)
(3.27552387 0.0112975865 0.417261353)
(2.70084999 0.0130777853 0.263084112)
(2.31186788 0.0133825082 0.147161159)
(2.07877913 0.0122298629 0.0750002784)
(1.93190149 0.00966809193 0.0359400537)
(1.83782458 0.00575589785 0.0171214757)
(1.77861879 0.000543596805 0.00882383553)
(1.74057328 -0.00592588685 0.00550216409)
(1.71484485 -0.013615977 0.00432811565)
(1.69672017 -0.0224965422 0.00393016781)
(1.68376986 -0.0325406322 0.00371998758)
(1.67472717 -0.0437175807 0.00349564196)
(1.66898813 -0.0559827816 0.0032135522)
(1.66634437 -0.0692636058 0.00288326441)
(1.66682489 -0.0834398013 0.00252653103)
(1.6706105 -0.0983171232 0.00216245506)
(1.67798481 -0.11359377 0.00180338996)
(1.68929268 -0.128820108 0.0014552219)
(1.70488872 -0.143354413 0.00111879632)
(1.72506393 -0.156321299 0.000791290688)
(1.74994085 -0.166585031 0.000467439727)
(1.77933345 -0.172757706 0.000141136039)
(1.81257771 -0.17327046 -0.000191841116)
(1.84835969 -0.166541896 -0.000529800133)
(1.88459456 -0.151271764 -0.000860120948)
(1.91847089 -0.126862805 -0.00115585279)
(4.39475195 0.00223959989 0.341390502)
(3.85787052 0.00566861804 0.527032315)
(3.27430229 0.00787828343 0.417387583)
(2.69866792 0.00885876635 0.263203905)
(2.30863307 0.00858136346 0.147265436)
(2.07445084 0.00701971174 0.0750956507)
(1.92644916 0.00418193572 0.0360323406)
(1.83122995 8.54593274e-05 0.0172114851)
(1.77087006 -0.00526243155 0.00891103523)
(1.7316605 -0.0118639724 0.00558678161)
(1.70475932 -0.0197303002 0.0044104175)
(1.68545463 -0.0288820312 0.00400995277)
(1.67132095 -0.0393469166 0.00379730047)
(1.6611021 -0.0511536325 0.00357078059)
(1.65421622 -0.0643221849 0.00328681908)
(1.65049461 -0.0788494561 0.002954812)
(1.65003127 -0.0946873581 0.00259626276)
(1.65310652 -0.111711168 0.00222996975)
(1.66014756 -0.129675797 0.00186789337)
(1.671695 -0.148158469 0.00151526534)
(1.68835528 -0.166488703 0.00117172576)
(1.71072079 -0.183670786 0.000832212312)
(1.73923908 -0.198312404 0.000487642708)
(1.77401643 -0.208586836 0.000126236418)
(1.81454968 -0.212273285 -0.000263119836)
(1.85940819 -0.206942752 -0.000684711615)
(1.90594823 -0.190362281 -0.00112324629)
(1.95022236 -0.161180561 -0.00153457314)
(4.39468058 0.00148180126 0.34142051)
(3.85742835 0.00371882352 0.527119149)
(3.27319269 0.00503330566 0.417501421)
(2.69667734 0.00534864524 0.26331171)
(2.30566676 0.00458823835 0.147359131)
(2.07045373 0.00269064813 0.0751810892)
(1.92136833 -0.000370066201 0.0361142362)
(1.82501938 -0.00461108623 0.0172914013)
(1.76348682 -0.0100606272 0.00898942472)
(1.72305797 -0.0167612105 0.00566387078)
(1.69488557 -0.0247695998 0.00448588457)
(1.67425263 -0.0341576918 0.00408359649)
(1.65873049 -0.045011619 0.00386930324)
(1.64706536 -0.0574276644 0.00364155495)
(1.63868885 -0.0715047168 0.00335679274)
(1.6334644 -0.0873311717 0.00302431103)
(1.63154716 -0.104962834 0.00266548088)
(1.63332117 -0.12438773 0.00229899613)
(1.63937605 -0.14547303 0.00193669312)
(1.65049218 -0.16788906 0.00158353777)
(1.66760939 -0.19100659 0.00123844247)
(1.69175313 -0.213767586 0.000894361578)
(1.72388761 -0.234540445 0.000537827409)
(1.76465952 -0.250990573 0.000148879439)
(1.81399252 -0.260029521 -0.000296736951)
(1.87054676 -0.257967403 -0.000818858265)
(1.93108812 -0.241010554 -0.00140422865)
(1.99007508 -0.206354261 -0.00198548757)
(4.39461626 0.000862898408 0.341448499)
(3.85702697 0.002129002 0.527198753)
(3.27217932 0.00271778386 0.417604808)
(2.69485151 0.00249924278 0.263409101)
(2.30293356 0.00136037509 0.147443185)
(2.06674581 -0.000787507667 0.0752564254)
(1.91661396 -0.00399907153 0.0361864557)
(1.81915128 -0.00831784353 0.0173630475)
(1.75643474 -0.0138015049 0.00906069345)
(1.71473977 -0.02052882 0.00573434207)
(1.68520613 -0.0285990765 0.00455516872)
(1.66310303 -0.038134211 0.00415153091)
(1.64598746 -0.0492807578 0.0039360878)
(1.63259436 -0.0622093219 0.00370760624)
(1.62235284 -0.0771110629 0.00342254391)
(1.61514099 -0.0941887755 0.00309011445)
(1.61115858 -0.11363822 0.00273162243)
(1.61088245 -0.135613806 0.00236580165)
(1.61506855 -0.160170658 0.00200473824)
(1.62476911 -0.187172622 0.00165391594)
(1.64133851 -0.216154014 0.00131276628)
(1.66639406 -0.246124324 0.000974103779)
(1.70168245 -0.275313882 0.000622285388)
(1.74877865 -0.30088093 0.000230058967)
(1.80851877 -0.318654464 -0.000243063943)
(1.88014141 -0.32310725 -0.000847525124)
(1.95998552 -0.307808701 -0.00159410677)
(2.04041517 -0.267138885 -0.00243047651)
(4.39455927 0.000370410642 0.34147552)
(3.85666452 0.000869413155 0.527272693)
(3.27125507 0.000891953288 0.417698978)
(2.6931782 0.000265914572 0.263496531)
(2.30041737 -0.00114423015 0.147517223)
(2.06331022 -0.00344811817 0.0753223016)
(1.91217459 -0.00672122083 0.0362509018)
(1.81362402 -0.0110267596 0.017427972)
(1.74972444 -0.0164471301 0.00912559005)
(1.70673186 -0.023091795 0.0057986748)
(1.6757647 -0.0310972843 0.00461852036)
(1.65206712 -0.0406319111 0.00421369108)
(1.63316695 -0.0519015185 0.00399717453)
(1.61776863 -0.0651540067 0.00376789771)
(1.60527429 -0.0806823522 0.00348223971)
(1.59554681 -0.0988237222 0.0031492022)
(1.58879638 -0.119949913 0.00278987669)
(1.58555831 -0.144441812 0.00242295784)
(1.58672916 -0.172636636 0.00206095483)
(1.5936337 -0.204730857 0.00171064388)
(1.60809828 -0.240614701 0.001373969)
(1.63249438 -0.279607653 0.00104780581)
(1.66968379 -0.320063255 0.000721335429)
(1.72274262 -0.358825628 0.000370868192)
(1.79429941 -0.390610821 -4.44509293e-05)
(1.88523719 -0.40742662 -0.000597273515)
(1.99220723 -0.398533394 -0.00131736534)
(2.10527224 -0.352616802 -0.0023265819)
(4.39451061 -5.52398355e-06 0.341503018)
(3.8563438 -8.7611662e-05 0.527342648)
(3.27041973 -0.000484142325 0.417784495)
(2.69165507 -0.00139668846 0.263574567)
(2.29811829 -0.00297093857 0.147582361)
(2.06015376 -0.00532950257 0.0753809654)
(1.90806797 -0.00856120285 0.0363090472)
(1.8084694 -0.0127439134 0.0174868033)
(1.74340668 -0.0179785144 0.009184441)
(1.6991096 -0.0243975562 0.00585696815)
(1.66666603 -0.0321672144 0.00467578383)
(1.64128241 -0.0414950442 0.00426962046)
(1.62043996 -0.0526401595 0.00405169549)
(1.60278858 -0.0659242227 0.00382092501)
(1.58767067 -0.0817435702 0.00353334046)
(1.57489027 -0.100580799 0.00319732044)
(1.56461212 -0.123011679 0.00283315205)
(1.55736253 -0.149700067 0.00245874714)
(1.55410609 -0.181367683 0.00208634058)
(1.55637961 -0.218715688 0.0017239267)
(1.56647021 -0.262259619 0.0013779404)
(1.58760872 -0.312017725 0.00105549055)
(1.62410552 -0.366966752 0.000763400467)
(1.68128213 -0.424191834 0.000505179718)
(1.76494666 -0.477694539 0.00026209571)
(1.87984086 -0.516757415 -4.59095436e-05)
(2.02554941 -0.524779508 -0.00039694978)
(2.19235074 -0.479535878 -0.00151288278)
(4.39446915 -0.000273675383 0.341529652)
(3.85606334 -0.000770146367 0.527407118)
(3.26967514 -0.00145371769 0.417860945)
(2.69028901 -0.00253682588 0.263643916)
(2.29605048 -0.00416942438 0.147640411)
(2.05730121 -0.00647829995 0.0754335117)
(1.90433331 -0.00955841271 0.0363612791)
(1.80374642 -0.0134961875 0.0175396137)
(1.73756712 -0.0184033001 0.00923714118)
(1.69199297 -0.024426216 0.00590895744)
(1.65807262 -0.0317503796 0.00472652983)
(1.63096228 -0.0406109907 0.00431866867)
(1.60807839 -0.0513077832 0.00409863476)
(1.58798973 -0.0642232163 0.0038650296)
(1.56994018 -0.0798455419 0.0035730397)
(1.55361903 -0.0987967791 0.00322958507)
(1.53906672 -0.12186382 0.00285277684)
(1.52669345 -0.150028101 0.00245762769)
(1.51739445 -0.184482974 0.00205318905)
(1.51276052 -0.226614937 0.00164560251)
(1.51539581 -0.277899945 0.00124495825)
(1.52934655 -0.33962033 0.000876733881)
(1.56060096 -0.412229555 0.00059806942)
(1.61753258 -0.494194126 0.000505876669)
(1.71103919 -0.579844618 0.000665621002)
(1.85321243 -0.655831377 0.000999530679)
(2.05345699 -0.698038412 0.00116108754)
(2.31372991 -0.661417449 -0.00221316278)
(4.39443311 -0.000446572456 0.341552801)
(3.85581924 -0.00120970782 0.527463099)
(3.26902545 -0.00206155086 0.417927395)
(2.6890945 -0.00320823537 0.263704319)
(2.2942368 -0.0047984746 0.147691235)
(2.05478845 -0.00695529273 0.0754797309)
(1.90102538 -0.00977202027 0.0364072707)
(1.79953506 -0.0133366994 0.017586023)
(1.732319 -0.0177633028 0.00928326822)
(1.68553851 -0.023201444 0.00595417711)
(1.65019652 -0.029842534 0.00477023062)
(1.62138878 -0.0379330035 0.00436018641)
(1.59645109 -0.0477929615 0.00413709714)
(1.57384605 -0.059840992 0.00389883097)
(1.55267941 -0.0746281167 0.00359899718)
(1.53246373 -0.0928836173 0.00324172109)
(1.5130191 -0.115575323 0.00284049962)
(1.49449375 -0.143986594 0.00240309032)
(1.4774992 -0.179809195 0.00192789178)
(1.46338205 -0.22524173 0.00140732458)
(1.45469015 -0.283058352 0.00083944716)
(1.45592096 -0.356543804 0.000258596219)
(1.47465684 -0.449144144 -0.000201446842)
(1.52313755 -0.563330926 -0.000224205897)
(1.6202705 -0.697681321 0.000659040117)
(1.79122314 -0.84034986 0.00314229235)
(2.07075404 -0.957197497 0.00604375155)