/*--------------------------------*- C++ -*----------------------------------*\
| =========                 |                                                 |
| \\      /  F ield         | foam-extend: Open Source CFD                    |
|  \\    /   O peration     | Version:     4.1                                |
|   \\  /    A nd           | Web:         http://www.foam-extend.org         |
|    \\/     M anipulation  |                                                 |
\*---------------------------------------------------------------------------*/
FoamFile
{
    version     2.0;
    format      ascii;
    class       volVectorField;
    location    "0.75";
    object      U_0;
}
// * * * * * * * * * * * * * * * * * * * * * * * * * * * * * * * * * * * * * //

dimensions      [0 1 -1 0 0 0 0];

internalField   nonuniform List<vector> 
35840
(
(3.94086006 0.268528718 0.261844498)
(3.2079526 0.371832221 0.357379821)
(2.4382939 0.266508107 0.249860472)
(1.72034347 0.156946778 0.141978057)
(1.29366183 0.0888194285 0.0772224775)
(1.05217158 0.0517281329 0.0439382159)
(0.893408506 0.0312092572 0.0270959453)
(0.785190562 0.0189985789 0.0180803476)
(0.711657667 0.0115278801 0.0131428693)
(0.65999517 0.00695352329 0.0104201548)
(0.621997049 0.00409985781 0.00881175359)
(0.592997664 0.0022684409 0.00773299036)
(0.570212569 0.00106898595 0.0069125583)
(0.551885225 0.000273856705 0.00622862687)
(0.536881765 -0.000256294292 0.00562650385)
(0.524446219 -0.000607788953 0.00508262158)
(0.514048944 -0.000834608528 0.00458691347)
(0.50529707 -0.000971919272 0.00413396205)
(0.497892048 -0.00104311228 0.00371994923)
(0.491593749 -0.00106329643 0.00334167971)
(0.486202998 -0.00104269263 0.00299612484)
(0.481551008 -0.000988834078 0.00268053564)
(0.477491981 -0.000907662886 0.00239260873)
(0.473898507 -0.000804125779 0.0021304861)
(0.470658466 -0.000682635021 0.00189272909)
(0.4676731 -0.000547388729 0.00167827316)
(0.464855892 -0.000402541109 0.00148635993)
(0.462132031 -0.00025223982 0.00131645363)
(4.52124915 0.409954078 0.331399841)
(4.20224467 0.638139223 0.509000036)
(3.63675994 0.543500415 0.407274361)
(2.94288779 0.391296996 0.261504679)
(2.41563999 0.267512794 0.15221749)
(2.06111109 0.181558454 0.0859687624)
(1.80857357 0.124055645 0.0502531471)
(1.62429945 0.0850956934 0.0317436528)
(1.49021889 0.0584978506 0.0220715193)
(1.39076943 0.0403659138 0.016914224)
(1.31471226 0.0279249329 0.0139962195)
(1.25502115 0.0192639573 0.0121383436)
(1.20719749 0.0131359924 0.010791985)
(1.16821105 0.00873063467 0.00971730473)
(1.13598378 0.00551724265 0.00880558713)
(1.1090628 0.00314861854 0.00800472374)
(1.08639717 0.00139683094 0.00728806447)
(1.06720026 0.0001097352 0.00664009555)
(1.05085638 -0.000816082038 0.00604989328)
(1.03687202 -0.00145208276 0.00550856226)
(1.02484253 -0.00184929707 0.00500864738)
(1.01442835 -0.00204557284 0.00454422361)
(1.0053368 -0.00207037834 0.00411083644)
(0.997312624 -0.00194817893 0.00370523264)
(0.990131251 -0.00170060055 0.00332518418)
(0.983594279 -0.00134787499 0.00296935953)
(0.977526714 -0.000909735904 0.00263718855)
(0.971775481 -0.000405853899 0.00232869803)
(4.44213341 0.221362801 0.337951811)
(4.08278398 0.436519843 0.518818901)
(3.65713684 0.463122604 0.418089083)
(3.13712208 0.408864725 0.27588872)
(2.71978142 0.331903859 0.166457399)
(2.42181623 0.257619896 0.0961040384)
(2.19809278 0.195697923 0.0564739326)
(2.0263404 0.147084209 0.0358923806)
(1.89483075 0.109839149 0.0253530715)
(1.79240583 0.081706421 0.0198146915)
(1.7105136 0.0606118836 0.0166824894)
(1.64372784 0.0448037415 0.0146421992)
(1.58850221 0.0329048781 0.0130958664)
(1.54233132 0.0238790347 0.011804728)
(1.50339526 0.016969757 0.01067671)
(1.47034676 0.0116386973 0.0096735849)
(1.44215731 0.00750874893 0.00877643664)
(1.41801758 0.00431712924 0.00797217788)
(1.39727385 0.00187986366 0.00724873122)
(1.37938749 6.59648495e-05 0.00659429315)
(1.36390269 -0.00121993106 0.00599782355)
(1.35042873 -0.00204964601 0.0054495862)
(1.33862596 -0.00247980758 0.00494153628)
(1.32819445 -0.00255791516 0.00446741889)
(1.31886731 -0.00232660945 0.0040226351)
(1.3104061 -0.0018265232 0.00360406554)
(1.30259813 -0.00109808351 0.00320986878)
(1.29525498 -0.000182491161 0.0028392451)
(4.41370731 0.123371318 0.337928999)
(3.97527263 0.285999393 0.51684297)
(3.52614478 0.346949033 0.410944503)
(3.0482692 0.341774565 0.267055629)
(2.69650748 0.304746852 0.158687825)
(2.46049789 0.256448938 0.0893115217)
(2.28810481 0.208574137 0.0503485876)
(2.15600875 0.16630523 0.0306479309)
(2.05355805 0.130921403 0.0211758744)
(1.97168342 0.102101486 0.0166818225)
(1.90389633 0.0789964864 0.01446393)
(1.8465 0.0606296811 0.0131648227)
(1.79733175 0.0460734094 0.0121751287)
(1.75493565 0.0345269717 0.0112751028)
(1.71824796 0.0253408071 0.0104080939)
(1.68644714 0.0180115505 0.00957194418)
(1.65886135 0.0121616436 0.00877769648)
(1.63491882 0.00751372967 0.00803488586)
(1.61412293 0.00386602215 0.00734738862)
(1.59603726 0.00107153563 0.00671395853)
(1.58027407 -0.000978368469 0.00613007177)
(1.56648618 -0.00236685103 0.0055899501)
(1.55436029 -0.00316068768 0.0050876336)
(1.54361188 -0.00341722186 0.00461768225)
(1.53398159 -0.00318973731 0.00417561553)
(1.52523299 -0.00253119509 0.00375808384)
(1.51715153 -0.00149662119 0.00336286853)
(1.50954427 -0.000144383564 0.00298877601)
(4.40562841 0.0838886086 0.338529968)
(3.92709548 0.205876417 0.51866665)
(3.4345877 0.264644536 0.409524937)
(2.94274693 0.274654977 0.26103297)
(2.60544204 0.257691936 0.150310525)
(2.3968934 0.228001725 0.0805992831)
(2.25547732 0.194259818 0.0421468132)
(2.15330725 0.161546656 0.0232695023)
(2.07740783 0.132143566 0.0147407479)
(2.01793124 0.10670122 0.0111876997)
(1.96847223 0.0851484929 0.00984594899)
(1.92577872 0.0671244321 0.00933112821)
(1.88826552 0.0521663036 0.0090179721)
(1.85506618 0.039804443 0.00868235336)
(1.82564814 0.0296121159 0.00827527098)
(1.79963338 0.0212277112 0.00780877615)
(1.77670284 0.0143593637 0.00730982641)
(1.75655654 0.00877957744 0.00680313469)
(1.73890303 0.00431515902 0.00630587204)
(1.72345861 0.000835929186 0.00582766926)
(1.7099484 -0.00175674219 0.00537248501)
(1.69810933 -0.00353973739 0.00494112966)
(1.68768888 -0.00457612072 0.0045324533)
(1.67844668 -0.00492215622 0.00414438745)
(1.67015505 -0.00463288566 0.0037747502)
(1.66260001 -0.00376624131 0.00342170427)
(1.65558272 -0.00238580905 0.00308397685)
(1.6489212 -0.000562292659 0.00276093338)
(4.40178218 0.0613578989 0.339164183)
(3.90242136 0.153224711 0.520512306)
(3.38075349 0.204413588 0.410097129)
(2.86923444 0.221089612 0.258746291)
(2.52753353 0.215766388 0.145977894)
(2.32480652 0.198115004 0.0755280061)
(2.19493065 0.174686906 0.0370206042)
(2.10727633 0.149864674 0.0183387387)
(2.04676522 0.126086301 0.0101158018)
(2.00219455 0.10441941 0.0069127963)
(1.96647391 0.0852085776 0.00592961227)
(1.936061 0.0684566733 0.00577170089)
(1.90930722 0.0540067893 0.00580769689)
(1.88542127 0.0416363591 0.00580460307)
(1.86402041 0.0311099628 0.00570588629)
(1.84490449 0.0222079271 0.00551960965)
(1.82793144 0.0147399046 0.00527176883)
(1.81296207 0.00854923186 0.00498823014)
(1.79984317 0.00351173992 0.00468865601)
(1.78840454 -0.000468654509 0.00438568108)
(1.77846499 -0.00346654617 0.00408667055)
(1.76983232 -0.00554119117 0.00379553495)
(1.76230966 -0.00674304372 0.00351370711)
(1.7556984 -0.00712015813 0.00324125105)
(1.74980147 -0.00672355084 0.00297765884)
(1.74442686 -0.00561147223 0.00272231938)
(1.73939121 -0.00385244598 0.00247479088)
(1.73452371 -0.00152687807 0.00223494691)
(4.39956898 0.0466850655 0.339652831)
(3.8883097 0.117715817 0.521951994)
(3.34833348 0.161232006 0.41126714)
(2.82106207 0.180137112 0.258563746)
(2.47125719 0.181415352 0.144561227)
(2.26672845 0.17154277 0.0734986866)
(2.13930069 0.155462312 0.0347854959)
(2.05698903 0.136742626 0.0160477329)
(2.00350921 0.11762647 0.00782410808)
(1.96672632 0.09932133 0.00464225563)
(1.9389662 0.0824018986 0.00368808749)
(1.91633212 0.0670958038 0.00357077385)
(1.89696028 0.0534451788 0.0036659882)
(1.87994434 0.0413978076 0.0037415588)
(1.86485971 0.0308597634 0.00373713471)
(1.85151287 0.0217255109 0.00365578951)
(1.83979696 0.0138945497 0.00351888552)
(1.82962205 0.00727978848 0.00334851882)
(1.8208883 0.00181065186 0.00316161131)
(1.81347698 -0.00256792314 0.00296910654)
(1.80725203 -0.00589844285 0.00277762544)
(1.80205901 -0.00821472856 0.00259064647)
(1.79773045 -0.00954780071 0.00240947109)
(1.79408912 -0.00993151501 0.00223421518)
(1.79095212 -0.00940782254 0.00206445691)
(1.7881356 -0.00803133909 0.00189961301)
(1.78545991 -0.00587275488 0.00173916339)
(1.78275521 -0.00302064901 0.00158277751)
(4.39821837 0.0366413335 0.340042179)
(3.87962457 0.0929629422 0.523107551)
(3.32764621 0.129535629 0.412493241)
(2.78865256 0.148150231 0.259130618)
(2.43119919 0.152907859 0.144405893)
(2.2229741 0.148086051 0.0729483661)
(2.09473518 0.1372925 0.0341007844)
(2.01373378 0.123303488 0.01531683)
(1.96299285 0.108027151 0.00705700175)
(1.92980665 0.092644136 0.00382829722)
(1.90612078 0.0778330008 0.00281285011)
(1.88779267 0.0639579452 0.00262791048)
(1.87279085 0.051195869 0.00266135617)
(1.86009536 0.0396168699 0.00268916862)
(1.84920977 0.029233408 0.00265397319)
(1.83990047 0.0200300793 0.00255870317)
(1.83204324 0.0119816184 0.00242305633)
(1.82554612 0.00506335008 0.00226681827)
(1.82031569 -0.00074360787 0.00210446899)
(1.81624582 -0.00545136147 0.00194502907)
(1.81321026 -0.00906591625 0.00179354065)
(1.81106404 -0.011590636 0.00165204598)
(1.8096449 -0.0130314754 0.00152076051)
(1.80877595 -0.0134025177 0.00139896592)
(1.80826983 -0.012731691 0.00128552675)
(1.80793393 -0.011066036 0.00117920361)
(1.80757683 -0.00847581003 0.00107881681)
(1.80701579 -0.0050567388 0.000983314753)
(4.39732496 0.0293625599 0.340348607)
(3.87390554 0.0747714719 0.524003029)
(3.31377153 0.105372907 0.413533102)
(2.76616475 0.122570732 0.259829996)
(2.40229731 0.128940109 0.14468577)
(2.19017123 0.127293686 0.0729945749)
(2.0600307 0.120206785 0.0340807225)
(1.97868232 0.109788079 0.0152865661)
(1.92871373 0.0975933375 0.00701380351)
(1.89703988 0.0846856187 0.0037538673)
(1.87534174 0.0717543521 0.00268630901)
(1.85930319 0.0592284293 0.00243364842)
(1.84677525 0.0473668568 0.00239337673)
(1.83665683 0.0363234505 0.00234983231)
(1.82839641 0.0261890806 0.00225068068)
(1.82172467 0.0170188687 0.00210128165)
(1.81649595 0.00884992501 0.00192213555)
(1.81260672 0.00171257316 0.00173283066)
(1.80995854 -0.00436366971 0.00154720282)
(1.80844226 -0.00934743122 0.00137362005)
(1.80792946 -0.013205629 0.00121623362)
(1.80827075 -0.015907053 0.00107624834)
(1.8092954 -0.0174273844 0.000953193405)
(1.81081326 -0.0177553973 0.000845755387)
(1.81261859 -0.0168998328 0.000752216473)
(1.8144959 -0.0148960586 0.000670770518)
(1.8162279 -0.0118114098 0.000599636246)
(1.81760516 -0.00774821682 0.000537038855)
(4.39670078 0.023842774 0.340585698)
(3.86994992 0.0608612522 0.524688739)
(3.30409411 0.0864361345 0.414366878)
(2.75011084 0.101775004 0.260481136)
(2.38103886 0.108608923 0.145084972)
(2.16530655 0.108813772 0.0732483266)
(2.03296024 0.104214837 0.0342957855)
(1.95056786 0.0963919672 0.0155024681)
(1.90044273 0.086580436 0.00722961605)
(1.86924067 0.0756899726 0.00395633346)
(1.84844886 0.0643642273 0.00285913726)
(1.83361739 0.0530441403 0.00256268867)
(1.82250561 0.0420282441 0.00247005838)
(1.81395014 0.0315212466 0.00237121385)
(1.807358 0.0216680355 0.00221776282)
(1.80243351 0.0125768845 0.00201742363)
(1.7990155 0.00433562925 0.00179198685)
(1.79699194 -0.00297759376 0.00156163337)
(1.79626049 -0.00928791787 0.00134058245)
(1.79670828 -0.0145204438 0.0011373233)
(1.7982026 -0.0186008413 0.000955827715)
(1.80058573 -0.0214589253 0.000797169096)
(1.80367296 -0.023034423 0.000660806497)
(1.80725349 -0.0232846342 0.000545362002)
(1.81109387 -0.0221932063 0.000449027826)
(1.81494459 -0.019779004 0.000369767153)
(1.81854972 -0.0161036289 0.000305483356)
(1.82165957 -0.0112760706 0.000254160935)
(4.39624841 0.0195120016 0.340768446)
(3.86710795 0.0498872216 0.525215529)
(3.29711084 0.0712274583 0.415025186)
(2.73833287 0.0845887 0.261035544)
(2.36507756 0.0912064142 0.14547937)
(2.14617588 0.0923620164 0.0735464114)
(2.01163436 0.0893498883 0.0345665099)
(1.92791195 0.0833432341 0.0157737275)
(1.87715959 0.0753058914 0.00750246238)
(1.84586274 0.0659918495 0.00422285205)
(1.82537069 0.0559718353 0.00310889487)
(1.81113083 0.0456659189 0.00278605682)
(1.80082861 0.0353816512 0.0026604207)
(1.79324945 0.0253490036 0.00252520743)
(1.78776659 0.0157466319 0.00233440199)
(1.78406375 0.00672087343 0.00209718525)
(1.78196878 -0.00160034104 0.00183617761)
(1.7813654 -0.00909757478 0.00157218588)
(1.78215009 -0.015653308 0.00131994957)
(1.78420971 -0.0211490778 0.00108807675)
(1.7874085 -0.0254664183 0.000880700681)
(1.79158029 -0.0284908781 0.000699150144)
(1.79652446 -0.0301192024 0.00054309059)
(1.80200481 -0.0302692384 0.000411278845)
(1.80775228 -0.0288916938 0.000302072498)
(1.81347219 -0.0259824478 0.000213658743)
(1.81885631 -0.021593603 0.000144134681)
(1.82359951 -0.0158410439 9.15163967e-05)
(4.39591 0.0160213696 0.340909677)
(3.86499755 0.0410052377 0.525623023)
(3.2919145 0.0587524828 0.41554334)
(2.72946328 0.0701768988 0.261490901)
(2.35283846 0.0761969766 0.145828239)
(2.13120804 0.0777086452 0.0738292823)
(1.99460798 0.075633868 0.0348285306)
(1.90946371 0.0708395859 0.0160336823)
(1.85783916 0.0640689546 0.00776162607)
(1.82611413 0.0559333782 0.0044765631)
(1.80554532 0.0469216744 0.0033508315)
(1.79150588 0.0374148165 0.00301034165)
(1.78162466 0.0277092503 0.00286291931)
(1.77464669 0.0180414924 0.00270363073)
(1.7699186 0.00860805449 0.00248774417)
(1.76710867 -0.000419380425 0.00222512707)
(1.76603813 -0.00888203127 0.00193887422)
(1.76659059 -0.0166247325 0.00165023354)
(1.76866588 -0.0234897877 0.0013740475)
(1.77215418 -0.029314482 0.00111900234)
(1.77691975 -0.0339321502 0.000889371232)
(1.78278973 -0.0371771419 0.000686674566)
(1.78954667 -0.0388938892 0.000510828421)
(1.7969248 -0.0389498703 0.000360945058)
(1.80461121 -0.0372517199 0.000235784758)
(1.8122533 -0.0337628245 0.000133956519)
(1.81947357 -0.0285199011 5.39639157e-05)
(1.8258917 -0.0216452676 -5.85442767e-06)
(4.39564952 0.0131480381 0.341019646)
(3.86338333 0.0336707293 0.525941637)
(3.2879366 0.0483459959 0.415953616)
(2.72261213 0.0579475938 0.261861255)
(2.34324695 0.0631717568 0.146124791)
(2.11927859 0.0646554156 0.0740792993)
(1.98079674 0.0630587828 0.0350622949)
(1.89423319 0.0590205941 0.0162635358)
(1.84161243 0.0531082683 0.00798839407)
(1.80925352 0.045808929 0.00469731866)
(1.78835528 0.037530179 0.00356165675)
(1.77424125 0.0286051781 0.00320768117)
(1.76450066 0.0193067237 0.00304434555)
(1.75785001 0.00986465586 0.00286779561)
(1.75361778 0.000480943937 0.00263392161)
(1.75146346 -0.00865792697 0.00235297512)
(1.751208 -0.0173701717 0.00204838112)
(1.75274102 -0.0254699887 0.0017413914)
(1.7559716 -0.0327616168 0.00144670103)
(1.76079923 -0.0390365358 0.00117295898)
(1.76709368 -0.0440745666 0.000924492328)
(1.77467927 -0.0476497435 0.000702949604)
(1.78332279 -0.0495416162 0.000508476249)
(1.79272556 -0.0495522017 0.000340532363)
(1.80252161 -0.04752802 0.000198330365)
(1.81228457 -0.0433853902 8.10483478e-05)
(1.82154525 -0.0371356308 -1.21525028e-05)
(1.82982088 -0.0289052477 -8.22821345e-05)
(4.39544369 0.0107448648 0.341106343)
(3.86211432 0.0275213116 0.526194386)
(3.28480821 0.0395523473 0.416282312)
(2.71718563 0.0474746696 0.262163337)
(2.33555917 0.0518159936 0.146373691)
(2.10957863 0.0530315769 0.0742944814)
(1.96939075 0.0515952559 0.0352648615)
(1.88145207 0.0479757571 0.0164616077)
(1.82777604 0.0426016341 0.00818225716)
(1.79465075 0.0358541936 0.00488492959)
(1.7732423 0.0280650026 0.00374042716)
(1.75884437 0.0195162596 0.00337535172)
(1.74902188 0.010449544 0.0031994323)
(1.7424744 0.00107845162 0.00300942472)
(1.73852167 -0.00839950123 0.00276163524)
(1.73682318 -0.0177918488 0.0024666784)
(1.73720799 -0.0269010421 0.00214794481)
(1.73957997 -0.0355157403 0.00182636605)
(1.74386653 -0.043404053 0.00151643506)
(1.74998608 -0.0503096965 0.00122667288)
(1.75782322 -0.0559524716 0.000961351202)
(1.76720725 -0.0600345271 0.000722141963)
(1.7778936 -0.0622538263 0.00050931495)
(1.78954934 -0.062325854 0.000322603847)
(1.80174604 -0.0600135441 0.00016170862)
(1.81396405 -0.0551636553 2.65418192e-05)
(1.82561263 -0.0477452734 -8.27727862e-05)
(1.83606836 -0.0378831867 -0.000166170194)
(4.39527698 0.00871179396 0.341175866)
(3.86109039 0.0223090281 0.526398449)
(3.28228287 0.0320530016 0.416549774)
(2.7127791 0.0384487822 0.262412211)
(2.32925347 0.0418886992 0.146582801)
(2.10152271 0.0426946022 0.074478522)
(1.95978502 0.0412047445 0.0354392117)
(1.87052816 0.0377601498 0.0166317019)
(1.81577031 0.0326794559 0.00834795482)
(1.78178737 0.0262545566 0.00504465919)
(1.75972999 0.0187475831 0.00389235048)
(1.744877 0.0103894553 0.00351790757)
(1.73478138 0.00138566604 0.00333156523)
(1.72813625 -0.00807388039 0.00313059085)
(1.72426262 -0.0178043277 0.00287179623)
(1.72282973 -0.0276154887 0.00256579745)
(1.72368438 -0.037301632 0.0022355712)
(1.72675589 -0.0466315942 0.00190172851)
(1.73200272 -0.0553399943 0.00157851875)
(1.73937631 -0.0631211426 0.0012742448)
(1.74879079 -0.0696275365 0.000992959843)
(1.76009423 -0.0744752669 0.000736171155)
(1.77304083 -0.0772589264 0.000504108223)
(1.78726644 -0.0775784254 0.000296652693)
(1.80227185 -0.0750789626 0.000113970652)
(1.81742108 -0.0695030107 -4.31199784e-05)
(1.83196209 -0.0607491763 -0.0001731033)
(1.84507651 -0.0489275041 -0.00027416546)
(4.39513874 0.00697913139 0.341232805)
(3.86024342 0.0178603798 0.526566554)
(3.28019213 0.0256215481 0.416771394)
(2.70911181 0.0306437171 0.262620228)
(2.32395982 0.033206271 0.146760014)
(2.0946846 0.0335288206 0.0746365904)
(1.9515273 0.0318483361 0.0355898793)
(1.86100701 0.0284084576 0.0167787171)
(1.80515429 0.023439975 0.00849089798)
(1.77024386 0.0171589366 0.00518223084)
(1.74742213 0.00976441679 0.00402313149)
(1.73196332 0.00143658383 0.00364065944)
(1.72141783 -0.00765886453 0.00344559926)
(1.71448173 -0.0173618278 0.00323593809)
(1.71048654 -0.0275079368 0.0029685855)
(1.70912048 -0.0379182162 0.00265373559)
(1.71025937 -0.0483876191 0.00231398898)
(1.71387157 -0.0586725792 0.00196967682)
(1.71996315 -0.0684788313 0.00163470807)
(1.72853819 -0.0774512011 0.00131698545)
(1.73956234 -0.0851678749 0.0010201524)
(1.75292475 -0.0911425995 0.000745303074)
(1.7683977 -0.0948390899 0.000492327328)
(1.78559673 -0.0957022956 0.000260974715)
(1.80394785 -0.0932102876 5.17229606e-05)
(1.82267272 -0.0869476256 -0.000133566038)
(1.84080547 -0.0766950573 -0.000291382464)
(1.85725482 -0.0625213648 -0.000417096135)
(4.39502157 0.0054973416 0.341280574)
(3.8595262 0.0140516276 0.526708078)
(3.27841891 0.0200946358 0.416958659)
(2.70598647 0.0238928197 0.262797039)
(2.3194136 0.0256293878 0.146912118)
(2.08875316 0.0254428068 0.0747736464)
(1.9442802 0.0234922102 0.0357212806)
(1.85254209 0.0199454608 0.0169071503)
(1.79558425 0.0149620246 0.00861576552)
(1.75968586 0.00869285812 0.00530236138)
(1.73599517 0.00127911781 0.00413726955)
(1.71978807 -0.00714940085 0.00374796652)
(1.70861941 -0.0164697981 0.00354612408)
(1.70119528 -0.0265577882 0.0033299486)
(1.69686472 -0.0372782371 0.00305599734)
(1.69534398 -0.0484739101 0.00273413235)
(1.69654955 -0.0599515995 0.00238671855)
(1.70050446 -0.0714660522 0.00203370487)
(1.70728288 -0.0827025378 0.00168852575)
(1.71696752 -0.0932599666 0.00135852603)
(1.72960676 -0.102637597 0.00104668954)
(1.74516539 -0.110229992 0.00075333093)
(1.76346726 -0.115336863 0.000477503829)
(1.78413254 -0.117196 0.000218263485)
(1.80651816 -0.1150476 -2.4055587e-05)
(1.82967751 -0.10823563 -0.000246580163)
(1.85236245 -0.0963434473 -0.000443056187)
(1.87309519 -0.0793469218 -0.00060444934)
(4.39492029 0.00423055408 0.341321683)
(3.8589057 0.010792942 0.526829875)
(3.27688108 0.0153527011 0.417120035)
(2.70326357 0.0180723272 0.262949957)
(2.31542526 0.0190525856 0.147044535)
(2.08350195 0.0183659496 0.074893867)
(1.93779399 0.0161101194 0.0358371369)
(1.84487246 0.0123926784 0.017020631)
(1.78679694 0.00731410089 0.00872610118)
(1.74985232 0.000968223169 0.00540833969)
(1.72519102 -0.00655788837 0.00423803304)
(1.70809427 -0.0151843654 0.00384357014)
(1.6961251 -0.0248342742 0.00363685911)
(1.68800302 -0.0354262028 0.00341586921)
(1.68309962 -0.0468645299 0.00313699068)
(1.68116667 -0.0590265229 0.00280993611)
(1.68217272 -0.071745697 0.00245675911)
(1.68621198 -0.0847909196 0.00209697862)
(1.69345052 -0.0978417836 0.00174347434)
(1.70408276 -0.110461855 0.00140288874)
(1.7182827 -0.122072959 0.0010772666)
(1.73614207 -0.131936508 0.000765652968)
(1.75759134 -0.139151352 0.000465501958)
(1.7823041 -0.142681406 0.000174160436)
(1.8095943 -0.141429237 -0.000109223693)
(1.83832856 -0.134371104 -0.00038134004)
(1.86688985 -0.120759313 -0.000632635306)
(1.89324982 -0.100377487 -0.000847090201)
(4.39483122 0.00315226509 0.341357948)
(3.8583588 0.0080178329 0.526936891)
(3.27552114 0.011306746 0.417261665)
(2.70084489 0.0130892304 0.263084386)
(2.31186014 0.0133957423 0.147161392)
(2.07876841 0.01224445 0.0750005024)
(1.93188739 0.00968358872 0.0359402947)
(1.83780672 0.00577182977 0.0171217377)
(1.77859674 0.000559441095 0.00882411366)
(1.74054659 -0.0059107335 0.00550244615)
(1.71481305 -0.0136022315 0.00432838832)
(1.69668279 -0.0224850676 0.0039304141)
(1.68372646 -0.0325324765 0.00372018701)
(1.6746774 -0.0437140182 0.00349576631)
(1.66893178 -0.055985354 0.0032135622)
(1.66628145 -0.0692741573 0.00288310786)
(1.66675577 -0.0834604986 0.00252614123)
(1.67053607 -0.0983504451 0.00216175087)
(1.67790669 -0.113642442 0.00180227886)
(1.68921347 -0.12888695 0.00145360915)
(1.70481224 -0.143442061 0.00111660358)
(1.72499544 -0.156431762 0.000788486397)
(1.74988714 -0.166719042 0.000464080864)
(1.77930262 -0.172913893 0.000137415202)
(1.8125786 -0.173444399 -0.000195556996)
(1.84840062 -0.166725291 -0.000532959648)
(1.88468143 -0.151452127 -0.000862036289)
(1.91860485 -0.127024265 -0.00115582564)
(4.39475184 0.0022423673 0.34139065)
(3.85786954 0.00567580367 0.52703262)
(3.27429943 0.00788890693 0.417387908)
(2.69866255 0.00887211323 0.26320419)
(2.3086249 0.00859691901 0.147265676)
(2.0744395 0.00703704415 0.0750958801)
(1.92643417 0.00420061246 0.0360325895)
(1.83121087 0.000105032309 0.0172117596)
(1.77084637 -0.00524246057 0.00891132256)
(1.7316316 -0.0118441903 0.00558706678)
(1.70472459 -0.0197114137 0.00441068755)
(1.68541339 -0.0288649083 0.00401018897)
(1.67127253 -0.0393326416 0.00379747672)
(1.66104583 -0.0511435671 0.0035708602)
(1.65415153 -0.0643180361 0.00328675014)
(1.65042113 -0.0788533465 0.0029545228)
(1.64994892 -0.0947018916 0.00259565761)
(1.65301578 -0.111739471 0.00222892614)
(1.66004971 -0.129721506 0.0018662631)
(1.67159252 -0.148225623 0.00151288504)
(1.68825223 -0.166581471 0.00116844317)
(1.71062329 -0.183792957 0.000827934552)
(1.73915564 -0.198466545 0.000482409811)
(1.77395797 -0.208773073 0.00012031479)
(1.81452898 -0.212487725 -0.000269142928)
(1.85943836 -0.207175809 -0.000689877218)
(1.90603983 -0.190597499 -0.00112627882)
(1.95037941 -0.161395106 -0.00153411321)
(4.39468047 0.00148496497 0.341420665)
(3.85742734 0.00372702746 0.527119463)
(3.27318974 0.00504545579 0.417501754)
(2.6966718 0.00536399206 0.263311999)
(2.3056583 0.00460624786 0.147359376)
(2.07044194 0.00271090296 0.0751813249)
(1.92135271 -0.000347958653 0.0361145003)
(1.82499939 -0.00458752624 0.0172916856)
(1.76346185 -0.0100360729 0.00898971419)
(1.72302729 -0.0167361993 0.00566415299)
(1.69484837 -0.0247447851 0.00448614457)
(1.67420802 -0.0341338974 0.00408381219)
(1.65867749 -0.0449899076 0.00386944245)
(1.64700295 -0.05740942 0.0036415708)
(1.63861601 -0.0714917439 0.00335661688)
(1.63338018 -0.0873258116 0.00302384541)
(1.63145086 -0.104968091 0.00266458871)
(1.63321257 -0.124407396 0.00229749318)
(1.63925576 -0.145511766 0.00193434391)
(1.65036214 -0.167952394 0.00158006442)
(1.66747353 -0.191100735 0.00123355713)
(1.69161814 -0.213898935 0.000887837913)
(1.72376375 -0.234714588 0.000529624403)
(1.76456116 -0.251210613 0.000139321969)
(1.81393793 -0.260293588 -0.000306735947)
(1.87055646 -0.258265508 -0.000827631825)
(1.93118081 -0.241321569 -0.00140937405)
(1.99026095 -0.206645116 -0.00198430687)
(4.39461614 0.00086648852 0.341448651)
(3.85702594 0.00213826016 0.527199061)
(3.27217633 0.00273148312 0.41760514)
(2.69484591 0.00251664263 0.263409393)
(2.302925 0.00138093205 0.147443447)
(2.06673383 -0.000764195314 0.0752566797)
(1.91659804 -0.00397332923 0.0361867339)
(1.8191308 -0.00829001478 0.0173633342)
(1.75640899 -0.0137719769 0.00906097916)
(1.71470789 -0.0204980383 0.00573461446)
(1.68516714 -0.0285675909 0.00455541032)
(1.66305581 -0.0381027377 0.00415171592)
(1.64593071 -0.0492502582 0.00393617732)
(1.63252663 -0.062181105 0.00370754139)
(1.62227256 -0.0770869173 0.00342223583)
(1.61504651 -0.094171137 0.00308943075)
(1.61104831 -0.113630375 0.00273037031)
(1.61075514 -0.135620126 0.00236370913)
(1.61492364 -0.160196838 0.00200143871)
(1.62460739 -0.187225869 0.00164894654)
(1.64116306 -0.216243088 0.00130559876)
(1.66621145 -0.246259222 0.000964236988)
(1.70150432 -0.275504878 0.000609435968)
(1.74862317 -0.301136527 0.000214496985)
(1.80841154 -0.31897778 -0.000260020483)
(1.88011435 -0.323490566 -0.000863013276)
(1.96007166 -0.308226623 -0.00160347885)
(2.04063811 -0.26754351 -0.00242820108)
(4.39455912 0.000374428099 0.341475627)
(3.85666342 0.00087971506 0.527272946)
(3.27125208 0.000907211616 0.417699295)
(2.6931727 0.000285381521 0.263496825)
(2.30040891 -0.00112108452 0.147517499)
(2.06329837 -0.00342166579 0.0753225718)
(1.91215877 -0.00669172337 0.0362511803)
(1.81360356 -0.0109944781 0.0174282536)
(1.74969854 -0.0164123411 0.00912586488)
(1.70669957 -0.0230548097 0.00579892946)
(1.67572487 -0.0310584932 0.0046187355)
(1.65201839 -0.0405918472 0.00421383705)
(1.63310771 -0.0518609412 0.00399720504)
(1.61769698 -0.0651140188 0.00376774038)
(1.60518803 -0.0806445593 0.00348178161)
(1.59544343 -0.0987904491 0.00314826892)
(1.5886732 -0.119924491 0.00278820376)
(1.58541262 -0.144428948 0.00242015531)
(1.58655864 -0.17264286 0.00205646907)
(1.59343713 -0.204765024 0.00170372783)
(1.6078767 -0.240688442 0.00136368721)
(1.6322529 -0.279735552 0.00103312082)
(1.66943411 -0.320262315 0.000701359694)
(1.72250628 -0.359113285 0.000345419317)
(1.79411093 -0.391000447 -7.38983386e-05)
(1.88514563 -0.407919096 -0.000626301831)
(1.99227142 -0.399103769 -0.00133731447)
(2.10554674 -0.353198109 -0.00232579389)
(4.39451041 -1.1321372e-06 0.341503063)
(3.85634262 -7.63239899e-05 0.52734283)
(3.27041682 -0.00046733204 0.417784777)
(2.69164981 -0.00137518356 0.263574851)
(2.29811018 -0.00294524655 0.14758263)
(2.06014234 -0.00529993098 0.0753812305)
(1.90805269 -0.00852794317 0.0363093151)
(1.80844954 -0.0127071184 0.0174870705)
(1.74338139 -0.0179383205 0.00918469682)
(1.69907784 -0.0243540999 0.00585719797)
(1.66662654 -0.032120669 0.00467596634)
(1.64123363 -0.0414456767 0.0042697222)
(1.62037997 -0.052588412 0.00405166291)
(1.60271505 -0.0658708308 0.00382067196)
(1.58758075 -0.0816897356 0.0035327283)
(1.57478055 -0.100528439 0.00319612755)
(1.56447858 -0.122963784 0.00283102946)
(1.55720066 -0.149661205 0.00245515769)
(1.55391112 -0.181344699 0.00208048084)
(1.55614721 -0.218718619 0.00171463774)
(1.56619771 -0.262302805 0.00136363366)
(1.58729747 -0.31212093 0.00103415584)
(1.62376464 -0.367155771 0.00073285063)
(1.68093417 -0.424497586 0.000463786109)
(1.76463516 -0.478148606 0.000210283641)
(1.87963842 -0.517380666 -0.000103100092)
(2.02556027 -0.525559735 -0.000446308803)
(2.19270026 -0.480383161 -0.00153173222)
(4.39446894 -0.000268949865 0.341529667)
(3.85606218 -0.000757920967 0.527407259)
(3.26967244 -0.00143544381 0.417861187)
(2.69028414 -0.00251339346 0.263644173)
(2.29604295 -0.00414131232 0.14764066)
(2.05729059 -0.00644573992 0.07543376)
(1.90431905 -0.00952150764 0.0363615283)
(1.80372781 -0.0134549696 0.0175398589)
(1.7375433 -0.0183577439 0.00923737138)
(1.69196285 -0.0243762481 0.00590915703)
(1.65803487 -0.0316959027 0.00472667596)
(1.63091521 -0.0405519265 0.00431872501)
(1.60801986 -0.0512441378 0.00409854185)
(1.58791706 -0.064155182 0.00386468934)
(1.56984993 -0.0797736565 0.00357228956)
(1.5535069 -0.098722173 0.00322815683)
(1.53892734 -0.121788601 0.00285023291)
(1.52652023 -0.149955951 0.00245326526)
(1.5171796 -0.184420066 0.00204589898)
(1.51249536 -0.226571316 0.00163366958)
(1.51507187 -0.277891518 0.00122580616)
(1.52895802 -0.339671552 0.000846676404)
(1.56014967 -0.412376506 0.000552269474)
(1.61703698 -0.494487198 0.00043882162)
(1.71054914 -0.580347524 0.00057288963)
(1.85282977 -0.656609647 0.000882059309)
(2.05336015 -0.699121498 0.00103365183)
(2.3141735 -0.662670876 -0.00229886722)
(4.39443291 -0.000441531227 0.341552797)
(3.85581818 -0.00119661776 0.527463203)
(3.26902305 -0.00204196292 0.417927599)
(2.6890902 -0.00318305455 0.263704544)
(2.29423013 -0.00476814501 0.147691459)
(2.05477902 -0.00691997634 0.0754799557)
(1.90101267 -0.00973172412 0.0364074947)
(1.79951841 -0.0132913257 0.0175862402)
(1.73229756 -0.0177126508 0.00928346752)
(1.68551124 -0.0231452066 0.0059543427)
(1.65016207 -0.0297803047 0.0047703392)
(1.62134544 -0.0378642956 0.00436020053)
(1.59639665 -0.0477172428 0.0041369543)
(1.57377759 -0.0597577472 0.00389842563)
(1.55259315 -0.0745369564 0.00359814991)
(1.53235465 -0.0927844676 0.00324012723)
(1.51288066 -0.115468754 0.0028376455)
(1.49431736 -0.143874386 0.00239811635)
(1.4772738 -0.179695319 0.00191936606)
(1.46309373 -0.225134017 0.00139286934)
(1.45432235 -0.282971291 0.000815139921)
(1.45545601 -0.356503091 0.000218074154)
(1.47408083 -0.449193914 -0.000268302961)
(1.52245226 -0.563544315 -0.000333148157)
(1.61951834 -0.698173056 0.000484786056)
(1.79053105 -0.841281116 0.00287373444)
(2.07040886 -0.958718528 0.00567116293)