/*--------------------------------*- C++ -*----------------------------------*\
| =========                 |                                                 |
| \\      /  F ield         | foam-extend: Open Source CFD                    |
|  \\    /   O peration     | Version:     4.1                                |
|   \\  /    A nd           | Web:         http://www.foam-extend.org         |
|    \\/     M anipulation  |                                                 |
\*---------------------------------------------------------------------------*/
FoamFile
{
    version     2.0;
    format      ascii;
    class       volScalarField::DimensionedInternalField;
    location    "0.75";
    object      V0;
}
// * * * * * * * * * * * * * * * * * * * * * * * * * * * * * * * * * * * * * //

dimensions      [0 3 0 0 0 0 0];

value           nonuniform List<scalar> 
35840
(
1.0000002e-06
1.00000062e-06
1.00000105e-06
1.00000151e-06
1.00000203e-06
1.00000261e-06
1.00000329e-06
1.00000407e-06
1.00000498e-06
1.00000604e-06
1.00000727e-06
1.00000867e-06
1.00001027e-06
1.00001207e-06
1.00001408e-06
1.0000163e-06
1.00001872e-06
1.00002132e-06
1.00002407e-06
1.00002693e-06
1.00002986e-06
1.0000328e-06
1.00003567e-06
1.0000384e-06
1.00004093e-06
1.00004317e-06
1.00004506e-06
1.00004653e-06
1.00000021e-06
1.00000063e-06
1.00000107e-06
1.00000154e-06
1.00000207e-06
1.00000267e-06
1.00000336e-06
1.00000417e-06
1.00000511e-06
1.0000062e-06
1.00000746e-06
1.00000892e-06
1.00001058e-06
1.00001245e-06
1.00001455e-06
1.00001687e-06
1.0000194e-06
1.00002212e-06
1.00002502e-06
1.00002803e-06
1.00003112e-06
1.00003423e-06
1.00003727e-06
1.00004017e-06
1.00004286e-06
1.00004524e-06
1.00004725e-06
1.00004882e-06
1.00000022e-06
1.00000067e-06
1.00000113e-06
1.00000163e-06
1.00000219e-06
1.00000283e-06
1.00000358e-06
1.00000445e-06
1.00000546e-06
1.00000665e-06
1.00000803e-06
1.00000963e-06
1.00001146e-06
1.00001354e-06
1.00001587e-06
1.00001846e-06
1.0000213e-06
1.00002438e-06
1.00002766e-06
1.00003109e-06
1.00003462e-06
1.00003818e-06
1.00004168e-06
1.00004504e-06
1.00004815e-06
1.00005092e-06
1.00005326e-06
1.00005509e-06
1.00000024e-06
1.00000073e-06
1.00000124e-06
1.0000018e-06
1.00000242e-06
1.00000313e-06
1.00000397e-06
1.00000495e-06
1.00000611e-06
1.00000747e-06
1.00000907e-06
1.00001092e-06
1.00001306e-06
1.0000155e-06
1.00001826e-06
1.00002135e-06
1.00002475e-06
1.00002846e-06
1.00003243e-06
1.00003662e-06
1.00004095e-06
1.00004534e-06
1.00004967e-06
1.00005385e-06
1.00005773e-06
1.00006119e-06
1.00006413e-06
1.00006643e-06
1.00000027e-06
1.00000083e-06
1.0000014e-06
1.00000203e-06
1.00000274e-06
1.00000357e-06
1.00000454e-06
1.00000569e-06
1.00000705e-06
1.00000867e-06
1.00001057e-06
1.00001281e-06
1.0000154e-06
1.00001838e-06
1.00002178e-06
1.00002561e-06
1.00002986e-06
1.00003452e-06
1.00003954e-06
1.00004487e-06
1.00005041e-06
1.00005606e-06
1.00006167e-06
1.00006709e-06
1.00007216e-06
1.0000767e-06
1.00008055e-06
1.00008358e-06
1.00000031e-06
1.00000095e-06
1.00000161e-06
1.00000234e-06
1.00000317e-06
1.00000414e-06
1.00000529e-06
1.00000666e-06
1.0000083e-06
1.00001026e-06
1.00001259e-06
1.00001533e-06
1.00001855e-06
1.00002228e-06
1.00002655e-06
1.0000314e-06
1.00003683e-06
1.00004281e-06
1.00004932e-06
1.00005626e-06
1.00006352e-06
1.00007096e-06
1.0000784e-06
1.00008561e-06
1.00009238e-06
1.00009847e-06
1.00010366e-06
1.00010774e-06
1.00000036e-06
1.0000011e-06
1.00000187e-06
1.00000272e-06
1.0000037e-06
1.00000485e-06
1.00000623e-06
1.00000788e-06
1.00000988e-06
1.00001228e-06
1.00001515e-06
1.00001857e-06
1.00002259e-06
1.0000273e-06
1.00003274e-06
1.00003895e-06
1.00004595e-06
1.00005373e-06
1.00006224e-06
1.00007138e-06
1.00008101e-06
1.00009093e-06
1.0001009e-06
1.00011062e-06
1.00011978e-06
1.00012805e-06
1.00013512e-06
1.00014069e-06
1.00000042e-06
1.00000128e-06
1.00000218e-06
1.00000318e-06
1.00000434e-06
1.00000571e-06
1.00000736e-06
1.00000937e-06
1.0000118e-06
1.00001476e-06
1.00001831e-06
1.00002258e-06
1.00002764e-06
1.0000336e-06
1.00004054e-06
1.00004853e-06
1.0000576e-06
1.00006775e-06
1.00007893e-06
1.00009103e-06
1.00010385e-06
1.00011715e-06
1.00013058e-06
1.00014375e-06
1.00015622e-06
1.00016752e-06
1.0001772e-06
1.00018485e-06
1.00000049e-06
1.00000149e-06
1.00000254e-06
1.00000372e-06
1.00000509e-06
1.00000672e-06
1.00000871e-06
1.00001113e-06
1.0000141e-06
1.00001773e-06
1.00002213e-06
1.00002745e-06
1.00003381e-06
1.00004136e-06
1.00005021e-06
1.00006048e-06
1.00007222e-06
1.00008547e-06
1.00010016e-06
1.00011618e-06
1.00013327e-06
1.00015111e-06
1.00016925e-06
1.00018712e-06
1.00020413e-06
1.00021961e-06
1.00023291e-06
1.00024345e-06
1.00000057e-06
1.00000172e-06
1.00000295e-06
1.00000433e-06
1.00000594e-06
1.00000788e-06
1.00001026e-06
1.00001319e-06
1.00001679e-06
1.00002123e-06
1.00002666e-06
1.00003327e-06
1.00004123e-06
1.00005075e-06
1.00006201e-06
1.00007516e-06
1.00009033e-06
1.00010757e-06
1.00012684e-06
1.00014801e-06
1.00017077e-06
1.00019469e-06
1.00021916e-06
1.00024344e-06
1.00026665e-06
1.00028787e-06
1.00030617e-06
1.00032071e-06
1.00000065e-06
1.00000199e-06
1.00000341e-06
1.00000502e-06
1.0000069e-06
1.0000092e-06
1.00001203e-06
1.00001553e-06
1.00001989e-06
1.00002529e-06
1.00003195e-06
1.0000401e-06
1.00005002e-06
1.00006196e-06
1.0000762e-06
1.00009297e-06
1.00011247e-06
1.00013482e-06
1.00016001e-06
1.0001879e-06
1.00021813e-06
1.00025013e-06
1.00028311e-06
1.00031604e-06
1.00034771e-06
1.0003768e-06
1.00040198e-06
1.00042205e-06
1.00000075e-06
1.00000228e-06
1.00000391e-06
1.00000576e-06
1.00000796e-06
1.00001066e-06
1.000014e-06
1.00001817e-06
1.00002339e-06
1.00002991e-06
1.00003801e-06
1.00004802e-06
1.00006028e-06
1.00007516e-06
1.00009305e-06
1.0001143e-06
1.00013923e-06
1.00016804e-06
1.00020082e-06
1.0002374e-06
1.0002774e-06
1.0003201e-06
1.00036444e-06
1.00040903e-06
1.00045219e-06
1.00049205e-06
1.00052671e-06
1.00055441e-06
1.00000085e-06
1.00000258e-06
1.00000444e-06
1.00000656e-06
1.0000091e-06
1.00001222e-06
1.00001613e-06
1.00002106e-06
1.00002727e-06
1.00003508e-06
1.00004486e-06
1.00005703e-06
1.00007205e-06
1.00009045e-06
1.00011276e-06
1.0001395e-06
1.00017115e-06
1.00020807e-06
1.00025044e-06
1.0002982e-06
1.00035089e-06
1.00040764e-06
1.00046707e-06
1.00052732e-06
1.00058604e-06
1.0006406e-06
1.00068828e-06
1.00072652e-06
1.00000095e-06
1.0000029e-06
1.00000499e-06
1.0000074e-06
1.00001029e-06
1.00001387e-06
1.00001841e-06
1.00002416e-06
1.00003147e-06
1.00004074e-06
1.00005245e-06
1.0000671e-06
1.00008535e-06
1.00010789e-06
1.00013546e-06
1.00016882e-06
1.00020868e-06
1.00025562e-06
1.00031004e-06
1.00037198e-06
1.00044101e-06
1.00051609e-06
1.00059546e-06
1.00067662e-06
1.00075636e-06
1.00083097e-06
1.00089651e-06
1.00094929e-06
1.00000106e-06
1.00000322e-06
1.00000556e-06
1.00000825e-06
1.00001151e-06
1.00001559e-06
1.00002079e-06
1.00002743e-06
1.00003593e-06
1.00004679e-06
1.00006061e-06
1.0000781e-06
1.00010006e-06
1.00012738e-06
1.00016112e-06
1.00020234e-06
1.00025207e-06
1.00031125e-06
1.00038057e-06
1.00046032e-06
1.00055017e-06
1.00064894e-06
1.00075445e-06
1.00086342e-06
1.00097146e-06
1.00107333e-06
1.00116338e-06
1.00123622e-06
1.00000116e-06
1.00000353e-06
1.00000611e-06
1.00000909e-06
1.00001274e-06
1.00001732e-06
1.00002319e-06
1.00003076e-06
1.00004053e-06
1.00005309e-06
1.00006922e-06
1.00008979e-06
1.00011584e-06
1.00014862e-06
1.0001895e-06
1.0002399e-06
1.0003013e-06
1.00037513e-06
1.0004626e-06
1.0005644e-06
1.00068044e-06
1.00080953e-06
1.00094905e-06
1.00109475e-06
1.00124073e-06
1.00137964e-06
1.00150333e-06
1.00160389e-06
1.00000126e-06
1.00000383e-06
1.00000663e-06
1.00000989e-06
1.0000139e-06
1.00001899e-06
1.00002555e-06
1.00003405e-06
1.0000451e-06
1.00005945e-06
1.00007802e-06
1.00010188e-06
1.00013238e-06
1.00017119e-06
1.00022011e-06
1.00028098e-06
1.00035584e-06
1.00044689e-06
1.00055605e-06
1.00068467e-06
1.00083319e-06
1.00100058e-06
1.00118387e-06
1.00137777e-06
1.00157442e-06
1.00176359e-06
1.00193354e-06
1.00207255e-06
1.00000134e-06
1.00000409e-06
1.00000709e-06
1.00001061e-06
1.00001496e-06
1.00002052e-06
1.00002773e-06
1.00003715e-06
1.00004949e-06
1.00006562e-06
1.00008665e-06
1.00011395e-06
1.00014922e-06
1.00019444e-06
1.00025186e-06
1.00032415e-06
1.00041436e-06
1.00052534e-06
1.00065982e-06
1.00082039e-06
1.00100846e-06
1.00122349e-06
1.00146245e-06
1.00171905e-06
1.0019831e-06
1.00224053e-06
1.00247439e-06
1.00266715e-06
1.00000141e-06
1.0000043e-06
1.00000747e-06
1.0000112e-06
1.00001584e-06
1.00002181e-06
1.00002961e-06
1.00003988e-06
1.00005341e-06
1.00007125e-06
1.00009469e-06
1.00012537e-06
1.00016534e-06
1.00021704e-06
1.00028335e-06
1.0003679e-06
1.00047462e-06
1.00060754e-06
1.00077102e-06
1.00096901e-06
1.00120422e-06
1.00147742e-06
1.00178612e-06
1.00212348e-06
1.00247688e-06
1.00282732e-06
1.00315033e-06
1.00341935e-06
1.00000145e-06
1.00000444e-06
1.00000773e-06
1.00001162e-06
1.00001649e-06
1.00002278e-06
1.00003107e-06
1.00004204e-06
1.00005661e-06
1.00007595e-06
1.00010156e-06
1.00013536e-06
1.00017975e-06
1.00023772e-06
1.00031299e-06
1.00041002e-06
1.00053376e-06
1.00069006e-06
1.00088537e-06
1.00112558e-06
1.00141551e-06
1.00175804e-06
1.0021525e-06
1.00259271e-06
1.00306426e-06
1.00354237e-06
1.00399198e-06
1.004372e-06
1.00000147e-06
1.0000045e-06
1.00000784e-06
1.00001182e-06
1.00001682e-06
1.00002333e-06
1.00003194e-06
1.00004342e-06
1.00005877e-06
1.00007929e-06
1.00010667e-06
1.00014309e-06
1.00019136e-06
1.00025503e-06
1.00033854e-06
1.00044733e-06
1.00058801e-06
1.00076828e-06
1.00099647e-06
1.00128182e-06
1.00163316e-06
1.00205622e-06
1.00255363e-06
1.00312308e-06
1.00375079e-06
1.00440655e-06
1.00504121e-06
1.00558969e-06
1.00000146e-06
1.00000447e-06
1.00000779e-06
1.00001176e-06
1.00001678e-06
1.00002336e-06
1.00003211e-06
1.00004384e-06
1.00005962e-06
1.00008086e-06
1.0001094e-06
1.00014767e-06
1.00019882e-06
1.00026693e-06
1.00035721e-06
1.00047618e-06
1.00063197e-06
1.00083438e-06
1.00109465e-06
1.00142565e-06
1.0018407e-06
1.00235256e-06
1.002972e-06
1.00370302e-06
1.00453752e-06
1.00544559e-06
1.00636232e-06
1.00718259e-06
1.00000141e-06
1.00000432e-06
1.00000754e-06
1.00001141e-06
1.00001633e-06
1.0000228e-06
1.00003145e-06
1.00004311e-06
1.00005889e-06
1.00008025e-06
1.00010916e-06
1.0001482e-06
1.0002008e-06
1.00027147e-06
1.00036607e-06
1.00049212e-06
1.00065922e-06
1.00087935e-06
1.00116713e-06
1.00153968e-06
1.00201685e-06
1.00262216e-06
1.00338011e-06
1.0043096e-06
1.00541931e-06
1.00669484e-06
1.00806448e-06
1.00935841e-06
1.00000133e-06
1.00000406e-06
1.00000709e-06
1.00001075e-06
1.00001542e-06
1.00002159e-06
1.00002988e-06
1.0000411e-06
1.00005637e-06
1.00007716e-06
1.00010545e-06
1.00014392e-06
1.00019613e-06
1.00026685e-06
1.00036238e-06
1.00049101e-06
1.00066356e-06
1.00089403e-06
1.00120031e-06
1.00160493e-06
1.00213693e-06
1.00283257e-06
1.00373578e-06
1.00489999e-06
1.00637844e-06
1.00820459e-06
1.01033904e-06
1.01252506e-06
1.0000012e-06
1.00000368e-06
1.00000644e-06
1.00000977e-06
1.00001405e-06
1.00001971e-06
1.00002736e-06
1.00003775e-06
1.00005196e-06
1.00007139e-06
1.00009797e-06
1.00013432e-06
1.00018397e-06
1.00025171e-06
1.00034396e-06
1.00046934e-06
1.00063941e-06
1.00086961e-06
1.00118063e-06
1.00160042e-06
1.0021673e-06
1.00293438e-06
1.00397601e-06
1.00540011e-06
1.00736103e-06
1.01002892e-06
1.01349881e-06
1.01744701e-06
1.00000104e-06
1.00000319e-06
1.00000558e-06
1.00000848e-06
1.00001222e-06
1.00001718e-06
1.0000239e-06
1.00003307e-06
1.00004564e-06
1.00006291e-06
1.00008663e-06
1.00011922e-06
1.00016398e-06
1.0002254e-06
1.00030962e-06
1.00042499e-06
1.00058297e-06
1.00079932e-06
1.00109604e-06
1.0015046e-06
1.00207149e-06
1.00286842e-06
1.00401062e-06
1.00568831e-06
1.00822147e-06
1.01212503e-06
1.01791482e-06
1.02523952e-06
1.00000085e-06
1.00000259e-06
1.00000455e-06
1.00000692e-06
1.00000998e-06
1.00001405e-06
1.00001958e-06
1.00002716e-06
1.00003756e-06
1.0000519e-06
1.00007166e-06
1.00009891e-06
1.00013648e-06
1.00018826e-06
1.00025963e-06
1.00035799e-06
1.00049363e-06
1.00068104e-06
1.00094112e-06
1.00130512e-06
1.00182249e-06
1.00257702e-06
1.00372129e-06
1.00554776e-06
1.00861897e-06
1.01397509e-06
1.02348863e-06
1.0358594e-06
1.00000062e-06
1.00000191e-06
1.00000336e-06
1.00000512e-06
1.00000739e-06
1.00001042e-06
1.00001454e-06
1.00002019e-06
1.00002798e-06
1.00003872e-06
1.00005356e-06
1.00007409e-06
1.00010246e-06
1.00014168e-06
1.00019591e-06
1.00027093e-06
1.00037484e-06
1.00051917e-06
1.00072086e-06
1.00100588e-06
1.00141701e-06
1.00203128e-06
1.00300125e-06
1.00465476e-06
1.0077178e-06
1.01363459e-06
1.02381653e-06
1.053357e-06
1.00000059e-06
1.00000179e-06
1.00000304e-06
1.00000438e-06
1.00000588e-06
1.00000758e-06
1.00000954e-06
1.00001182e-06
1.00001447e-06
1.00001754e-06
1.00002109e-06
1.00002516e-06
1.0000298e-06
1.00003503e-06
1.00004087e-06
1.00004731e-06
1.00005433e-06
1.00006187e-06
1.00006985e-06
1.00007816e-06
1.00008666e-06
1.00009518e-06
1.00010351e-06
1.00011146e-06
1.00011879e-06
1.00012529e-06
1.00013076e-06
1.00013502e-06
1.00000061e-06
1.00000183e-06
1.0000031e-06
1.00000447e-06
1.000006e-06
1.00000774e-06
1.00000975e-06
1.00001209e-06
1.00001482e-06
1.00001799e-06
1.00002166e-06
1.00002588e-06
1.00003069e-06
1.00003614e-06
1.00004222e-06
1.00004895e-06
1.00005629e-06
1.0000642e-06
1.0000726e-06
1.00008135e-06
1.00009032e-06
1.00009933e-06
1.00010816e-06
1.00011658e-06
1.00012437e-06
1.00013129e-06
1.00013713e-06
1.00014168e-06
1.00000064e-06
1.00000194e-06
1.00000328e-06
1.00000474e-06
1.00000636e-06
1.00000822e-06
1.00001038e-06
1.0000129e-06
1.00001586e-06
1.00001931e-06
1.00002331e-06
1.00002795e-06
1.00003326e-06
1.00003928e-06
1.00004606e-06
1.00005358e-06
1.00006183e-06
1.00007075e-06
1.00008026e-06
1.00009023e-06
1.00010048e-06
1.00011081e-06
1.00012097e-06
1.00013071e-06
1.00013973e-06
1.00014777e-06
1.00015456e-06
1.00015987e-06
1.0000007e-06
1.00000212e-06
1.00000361e-06
1.00000521e-06
1.00000702e-06
1.00000909e-06
1.00001152e-06
1.00001437e-06
1.00001773e-06
1.00002168e-06
1.00002631e-06
1.00003169e-06
1.00003789e-06
1.00004497e-06
1.00005299e-06
1.00006195e-06
1.00007183e-06
1.00008259e-06
1.00009413e-06
1.00010628e-06
1.00011885e-06
1.00013158e-06
1.00014416e-06
1.00015627e-06
1.00016753e-06
1.00017759e-06
1.00018611e-06
1.00019279e-06
1.00000079e-06
1.0000024e-06
1.00000407e-06
1.0000059e-06
1.00000796e-06
1.00001035e-06
1.00001317e-06
1.00001651e-06
1.00002047e-06
1.00002516e-06
1.00003069e-06
1.00003716e-06
1.00004469e-06
1.00005335e-06
1.00006321e-06
1.00007431e-06
1.00008665e-06
1.00010017e-06
1.00011475e-06
1.00013022e-06
1.00014631e-06
1.00016269e-06
1.00017897e-06
1.0001947e-06
1.0002094e-06
1.00022258e-06
1.00023377e-06
1.00024255e-06
1.00000091e-06
1.00000275e-06
1.00000468e-06
1.00000679e-06
1.0000092e-06
1.00001201e-06
1.00001535e-06
1.00001933e-06
1.00002409e-06
1.00002978e-06
1.00003653e-06
1.0000445e-06
1.00005383e-06
1.00006465e-06
1.00007706e-06
1.00009113e-06
1.00010687e-06
1.00012425e-06
1.00014312e-06
1.00016327e-06
1.00018435e-06
1.00020594e-06
1.00022752e-06
1.00024846e-06
1.00026811e-06
1.00028578e-06
1.00030083e-06
1.00031267e-06
1.00000105e-06
1.00000319e-06
1.00000543e-06
1.00000791e-06
1.00001074e-06
1.00001408e-06
1.00001807e-06
1.00002288e-06
1.00002867e-06
1.00003563e-06
1.00004397e-06
1.00005388e-06
1.00006557e-06
1.00007923e-06
1.00009501e-06
1.00011303e-06
1.00013335e-06
1.00015594e-06
1.00018063e-06
1.00020716e-06
1.00023511e-06
1.0002639e-06
1.00029282e-06
1.00032104e-06
1.00034762e-06
1.00037163e-06
1.00039212e-06
1.00040829e-06
1.00000123e-06
1.00000371e-06
1.00000633e-06
1.00000924e-06
1.00001259e-06
1.00001657e-06
1.00002137e-06
1.00002719e-06
1.00003426e-06
1.00004282e-06
1.00005315e-06
1.00006552e-06
1.00008022e-06
1.00009752e-06
1.00011767e-06
1.00014084e-06
1.00016717e-06
1.00019663e-06
1.00022907e-06
1.00026418e-06
1.0003014e-06
1.00033998e-06
1.00037896e-06
1.00041718e-06
1.00045336e-06
1.00048615e-06
1.00051424e-06
1.00053644e-06
1.00000142e-06
1.00000432e-06
1.00000738e-06
1.00001079e-06
1.00001476e-06
1.00001951e-06
1.00002527e-06
1.00003231e-06
1.00004093e-06
1.00005145e-06
1.00006424e-06
1.00007966e-06
1.00009813e-06
1.00012003e-06
1.00014572e-06
1.00017551e-06
1.0002096e-06
1.00024804e-06
1.00029069e-06
1.00033716e-06
1.00038677e-06
1.00043854e-06
1.00049116e-06
1.00054305e-06
1.0005924e-06
1.00063731e-06
1.00067591e-06
1.0007065e-06
1.00000165e-06
1.00000501e-06
1.00000857e-06
1.00001257e-06
1.00001725e-06
1.00002288e-06
1.00002978e-06
1.00003827e-06
1.00004874e-06
1.00006161e-06
1.00007738e-06
1.00009655e-06
1.00011966e-06
1.00014729e-06
1.00017995e-06
1.00021812e-06
1.00026214e-06
1.00031217e-06
1.00036811e-06
1.00042953e-06
1.00049559e-06
1.000565e-06
1.00063602e-06
1.00070646e-06
1.00077382e-06
1.00083539e-06
1.0008885e-06
1.00093069e-06
1.0000019e-06
1.00000577e-06
1.0000099e-06
1.00001456e-06
1.00002004e-06
1.0000267e-06
1.0000349e-06
1.00004508e-06
1.00005772e-06
1.00007339e-06
1.00009271e-06
1.00011639e-06
1.00014517e-06
1.00017983e-06
1.00022114e-06
1.00026981e-06
1.0003264e-06
1.00039125e-06
1.00046437e-06
1.00054529e-06
1.00063302e-06
1.0007259e-06
1.0008216e-06
1.00091715e-06
1.00100904e-06
1.00109345e-06
1.00116653e-06
1.00122477e-06
1.00000218e-06
1.00000661e-06
1.00001134e-06
1.00001671e-06
1.0000231e-06
1.00003093e-06
1.00004062e-06
1.00005272e-06
1.00006787e-06
1.0000868e-06
1.00011032e-06
1.00013935e-06
1.00017493e-06
1.00021812e-06
1.00027003e-06
1.00033171e-06
1.00040405e-06
1.00048768e-06
1.00058278e-06
1.00068895e-06
1.00080503e-06
1.00092894e-06
1.0010576e-06
1.00118698e-06
1.0013122e-06
1.00142785e-06
1.00152841e-06
1.00160879e-06
1.00000247e-06
1.0000075e-06
1.00001288e-06
1.00001903e-06
1.00002641e-06
1.00003547e-06
1.0000468e-06
1.00006111e-06
1.00007915e-06
1.00010181e-06
1.00013019e-06
1.0001655e-06
1.00020911e-06
1.00026251e-06
1.00032724e-06
1.00040484e-06
1.00049668e-06
1.00060382e-06
1.00072679e-06
1.00086537e-06
1.00101826e-06
1.00118293e-06
1.00135539e-06
1.00153017e-06
1.00170053e-06
1.00185881e-06
1.00199711e-06
1.00210803e-06
1.00000277e-06
1.00000841e-06
1.00001449e-06
1.00002147e-06
1.00002986e-06
1.00004026e-06
1.00005342e-06
1.00007012e-06
1.00009133e-06
1.00011824e-06
1.0001522e-06
1.00019473e-06
1.00024769e-06
1.0003131e-06
1.00039312e-06
1.00048993e-06
1.00060558e-06
1.00074182e-06
1.00089974e-06
1.00107947e-06
1.00127975e-06
1.00149758e-06
1.00172784e-06
1.00196327e-06
1.00219456e-06
1.00241092e-06
1.00260097e-06
1.00275398e-06
1.00000307e-06
1.00000934e-06
1.00001612e-06
1.00002393e-06
1.0000334e-06
1.00004526e-06
1.00006033e-06
1.00007959e-06
1.00010426e-06
1.00013579e-06
1.00017589e-06
1.00022665e-06
1.00029039e-06
1.00036968e-06
1.00046758e-06
1.00058721e-06
1.00073152e-06
1.00090324e-06
1.00110438e-06
1.00133578e-06
1.00159643e-06
1.00188295e-06
1.00218899e-06
1.00250498e-06
1.00281821e-06
1.00311348e-06
1.00337444e-06
1.00358545e-06
1.00000337e-06
1.00001026e-06
1.00001773e-06
1.00002639e-06
1.00003696e-06
1.00005028e-06
1.00006731e-06
1.00008927e-06
1.00011761e-06
1.00015408e-06
1.00020087e-06
1.00026058e-06
1.00033618e-06
1.00043131e-06
1.00054995e-06
1.00069619e-06
1.00087435e-06
1.0010886e-06
1.00134238e-06
1.0016377e-06
1.0019743e-06
1.00234864e-06
1.00275314e-06
1.00317545e-06
1.00359838e-06
1.00400064e-06
1.0043587e-06
1.00464965e-06
1.00000365e-06
1.00001112e-06
1.00001924e-06
1.00002871e-06
1.00004035e-06
1.00005512e-06
1.00007414e-06
1.00009883e-06
1.0001309e-06
1.00017254e-06
1.00022642e-06
1.00029566e-06
1.00038419e-06
1.0004968e-06
1.00063875e-06
1.00081539e-06
1.00103262e-06
1.00129679e-06
1.00161344e-06
1.00198651e-06
1.00241718e-06
1.00290238e-06
1.00343345e-06
1.00399496e-06
1.00456403e-06
1.00511103e-06
1.00560206e-06
1.0060034e-06
1.00000389e-06
1.00001187e-06
1.00002058e-06
1.00003079e-06
1.00004342e-06
1.00005955e-06
1.00008047e-06
1.00010782e-06
1.00014362e-06
1.00019044e-06
1.00025146e-06
1.0003307e-06
1.00043305e-06
1.00056426e-06
1.00073089e-06
1.00094064e-06
1.00120237e-06
1.00152434e-06
1.00191436e-06
1.00237994e-06
1.00292504e-06
1.00354792e-06
1.00423959e-06
1.00498159e-06
1.00574424e-06
1.00648674e-06
1.00716024e-06
1.00771464e-06
1.00000409e-06
1.00001248e-06
1.00002167e-06
1.0000325e-06
1.00004598e-06
1.00006331e-06
1.00008594e-06
1.00011573e-06
1.00015501e-06
1.00020677e-06
1.00027479e-06
1.00036383e-06
1.00047983e-06
1.00062983e-06
1.00082225e-06
1.00106758e-06
1.00137717e-06
1.00176267e-06
1.00223669e-06
1.00281047e-06
1.00349171e-06
1.0042822e-06
1.00517432e-06
1.00614761e-06
1.00716507e-06
1.00817147e-06
1.00909662e-06
1.00986514e-06
1.00000422e-06
1.0000129e-06
1.00002243e-06
1.00003371e-06
1.00004784e-06
1.00006612e-06
1.00009016e-06
1.00012199e-06
1.00016428e-06
1.0002204e-06
1.00029472e-06
1.00039281e-06
1.00052165e-06
1.00068984e-06
1.00090824e-06
1.00118973e-06
1.00154864e-06
1.00200184e-06
1.00256786e-06
1.00326354e-06
1.0041023e-06
1.00509175e-06
1.00622881e-06
1.00749417e-06
1.00884469e-06
1.0102079e-06
1.01148353e-06
1.01255649e-06
1.00000428e-06
1.00001307e-06
1.00002276e-06
1.00003429e-06
1.00004881e-06
1.0000677e-06
1.0000927e-06
1.00012602e-06
1.00017056e-06
1.00023011e-06
1.00030955e-06
1.00041525e-06
1.00055532e-06
1.00074005e-06
1.00098234e-06
1.00129789e-06
1.00170584e-06
1.00222834e-06
1.00288925e-06
1.00371479e-06
1.00472955e-06
1.00594853e-06
1.00737675e-06
1.00900404e-06
1.01078657e-06
1.01263416e-06
1.01440623e-06
1.01592393e-06
1.00000424e-06
1.00001296e-06
1.0000226e-06
1.00003412e-06
1.00004871e-06
1.00006779e-06
1.00009318e-06
1.00012723e-06
1.00017303e-06
1.00023465e-06
1.00031748e-06
1.00042853e-06
1.00057696e-06
1.00077458e-06
1.00103645e-06
1.00138149e-06
1.0018331e-06
1.00241944e-06
1.00317261e-06
1.00412881e-06
1.00532475e-06
1.006794e-06
1.00856207e-06
1.0106322e-06
1.01297015e-06
1.01547943e-06
1.01797193e-06
1.02016577e-06
1.0000041e-06
1.00001254e-06
1.00002189e-06
1.00003311e-06
1.00004739e-06
1.00006616e-06
1.00009126e-06
1.00012511e-06
1.0001709e-06
1.0002329e-06
1.00031677e-06
1.00043006e-06
1.0005827e-06
1.00078772e-06
1.00106209e-06
1.00142757e-06
1.00191178e-06
1.00254899e-06
1.00338076e-06
1.00445484e-06
1.00582517e-06
1.00755318e-06
1.00969773e-06
1.01229387e-06
1.0153381e-06
1.01875574e-06
1.02232325e-06
1.02559716e-06
1.00000385e-06
1.00001178e-06
1.00002058e-06
1.0000312e-06
1.00004475e-06
1.00006265e-06
1.0000867e-06
1.00011929e-06
1.0001636e-06
1.00022392e-06
1.00030602e-06
1.00041764e-06
1.00056913e-06
1.00077428e-06
1.00105131e-06
1.00142415e-06
1.00192389e-06
1.00259046e-06
1.00347429e-06
1.00463771e-06
1.00615858e-06
1.0081294e-06
1.01065299e-06
1.01383929e-06
1.01776877e-06
1.02243615e-06
1.0276385e-06
1.03271544e-06
1.00000348e-06
1.00001067e-06
1.00001868e-06
1.00002836e-06
1.00004076e-06
1.00005721e-06
1.00007939e-06
1.00010957e-06
1.00015078e-06
1.00020716e-06
1.0002843e-06
1.00038977e-06
1.00053383e-06
1.0007303e-06
1.00099777e-06
1.00136107e-06
1.00185332e-06
1.00251837e-06
1.0034142e-06
1.00461717e-06
1.00622821e-06
1.00837932e-06
1.01123974e-06
1.01502764e-06
1.0200078e-06
1.02637496e-06
1.03404889e-06
1.04214921e-06
1.00000302e-06
1.00000925e-06
1.0000162e-06
1.00002462e-06
1.00003546e-06
1.00004986e-06
1.00006936e-06
1.00009598e-06
1.00013246e-06
1.00018256e-06
1.00025139e-06
1.00034596e-06
1.00047581e-06
1.00065395e-06
1.00089808e-06
1.00123226e-06
1.0016892e-06
1.00231349e-06
1.00316624e-06
1.00433233e-06
1.00593183e-06
1.00813809e-06
1.01120528e-06
1.01550273e-06
1.0215572e-06
1.03004238e-06
1.04124697e-06
1.05395057e-06
1.00000245e-06
1.00000752e-06
1.00001319e-06
1.00002008e-06
1.00002895e-06
1.00004079e-06
1.00005684e-06
1.00007881e-06
1.00010901e-06
1.0001506e-06
1.00020794e-06
1.000287e-06
1.00039599e-06
1.00054617e-06
1.00075301e-06
1.0010378e-06
1.00142986e-06
1.00197e-06
1.00271572e-06
1.00375022e-06
1.0051984e-06
1.00725692e-06
1.01025003e-06
1.01472263e-06
1.02154451e-06
1.03193787e-06
1.0473788e-06
1.06465289e-06
1.00000181e-06
1.00000556e-06
1.00000975e-06
1.00001485e-06
1.00002144e-06
1.00003024e-06
1.0000422e-06
1.0000586e-06
1.00008119e-06
1.00011236e-06
1.00015544e-06
1.00021498e-06
1.00029727e-06
1.000411e-06
1.00056815e-06
1.0007853e-06
1.00108547e-06
1.001501e-06
1.0020781e-06
1.00288501e-06
1.0040275e-06
1.00568062e-06
1.0081554e-06
1.01203376e-06
1.01838918e-06
1.02879977e-06
1.04333653e-06
1.0815539e-06
1.00000092e-06
1.00000279e-06
1.00000473e-06
1.00000682e-06
1.00000915e-06
1.0000118e-06
1.00001486e-06
1.00001841e-06
1.00002253e-06
1.00002732e-06
1.00003285e-06
1.00003919e-06
1.00004641e-06
1.00005456e-06
1.00006365e-06
1.00007368e-06
1.00008461e-06
1.00009636e-06
1.0001088e-06
1.00012174e-06
1.00013498e-06
1.00014824e-06
1.00016123e-06
1.0001736e-06
1.00018501e-06
1.00019514e-06
1.00020366e-06
1.00021031e-06
1.00000094e-06
1.00000285e-06
1.00000483e-06
1.00000697e-06
1.00000935e-06
1.00001206e-06
1.00001519e-06
1.00001884e-06
1.00002308e-06
1.00002802e-06
1.00003374e-06
1.00004031e-06
1.00004781e-06
1.00005628e-06
1.00006576e-06
1.00007624e-06
1.00008768e-06
1.0001e-06
1.00011307e-06
1.00012671e-06
1.00014068e-06
1.00015471e-06
1.00016846e-06
1.00018158e-06
1.00019372e-06
1.0002045e-06
1.00021358e-06
1.00022067e-06
1.000001e-06
1.00000301e-06
1.00000511e-06
1.00000738e-06
1.00000991e-06
1.00001281e-06
1.00001617e-06
1.0000201e-06
1.0000247e-06
1.00003007e-06
1.00003631e-06
1.00004353e-06
1.0000518e-06
1.00006118e-06
1.00007173e-06
1.00008345e-06
1.0000963e-06
1.0001102e-06
1.00012502e-06
1.00014054e-06
1.0001565e-06
1.00017259e-06
1.00018842e-06
1.00020358e-06
1.00021764e-06
1.00023016e-06
1.00024073e-06
1.000249e-06
1.0000011e-06
1.00000331e-06
1.00000562e-06
1.00000812e-06
1.00001093e-06
1.00001416e-06
1.00001794e-06
1.00002239e-06
1.00002762e-06
1.00003377e-06
1.00004098e-06
1.00004935e-06
1.00005901e-06
1.00007005e-06
1.00008253e-06
1.00009648e-06
1.00011188e-06
1.00012864e-06
1.00014661e-06
1.00016553e-06
1.00018511e-06
1.00020494e-06
1.00022454e-06
1.00024339e-06
1.00026093e-06
1.00027661e-06
1.00028988e-06
1.00030028e-06
1.00000123e-06
1.00000373e-06
1.00000634e-06
1.00000918e-06
1.0000124e-06
1.00001613e-06
1.00002051e-06
1.00002571e-06
1.00003188e-06
1.00003918e-06
1.00004779e-06
1.00005788e-06
1.0000696e-06
1.00008309e-06
1.00009845e-06
1.00011574e-06
1.00013496e-06
1.00015602e-06
1.00017873e-06
1.00020282e-06
1.00022788e-06
1.0002534e-06
1.00027876e-06
1.00030326e-06
1.00032615e-06
1.00034668e-06
1.0003641e-06
1.00037778e-06
1.00000142e-06
1.00000428e-06
1.00000729e-06
1.00001058e-06
1.00001433e-06
1.00001871e-06
1.0000239e-06
1.0000301e-06
1.00003752e-06
1.00004638e-06
1.0000569e-06
1.00006931e-06
1.00008384e-06
1.00010069e-06
1.00012002e-06
1.00014193e-06
1.00016646e-06
1.00019353e-06
1.00022292e-06
1.00025429e-06
1.00028713e-06
1.00032076e-06
1.00035436e-06
1.00038698e-06
1.00041758e-06
1.00044511e-06
1.00046855e-06
1.000487e-06
1.00000164e-06
1.00000497e-06
1.00000846e-06
1.00001231e-06
1.00001673e-06
1.00002193e-06
1.00002815e-06
1.00003563e-06
1.00004465e-06
1.0000555e-06
1.00006849e-06
1.00008393e-06
1.00010213e-06
1.0001234e-06
1.00014798e-06
1.00017606e-06
1.00020771e-06
1.00024288e-06
1.00028134e-06
1.00032266e-06
1.00036619e-06
1.00041103e-06
1.00045608e-06
1.00050002e-06
1.00054143e-06
1.00057881e-06
1.00061074e-06
1.00063591e-06
1.00000191e-06
1.00000578e-06
1.00000986e-06
1.00001439e-06
1.00001962e-06
1.00002582e-06
1.00003329e-06
1.00004235e-06
1.00005336e-06
1.0000667e-06
1.00008279e-06
1.00010206e-06
1.00012495e-06
1.0001519e-06
1.00018327e-06
1.00021937e-06
1.00026037e-06
1.00030625e-06
1.00035679e-06
1.00041146e-06
1.00046943e-06
1.00052952e-06
1.00059023e-06
1.00064976e-06
1.00070611e-06
1.00075718e-06
1.00080093e-06
1.0008355e-06
1.00000222e-06
1.00000673e-06
1.0000115e-06
1.00001681e-06
1.00002299e-06
1.00003038e-06
1.00003936e-06
1.00005032e-06
1.00006375e-06
1.00008014e-06
1.00010005e-06
1.00012408e-06
1.00015285e-06
1.00018695e-06
1.00022697e-06
1.00027337e-06
1.00032646e-06
1.00038633e-06
1.00045275e-06
1.00052513e-06
1.00060241e-06
1.00068304e-06
1.00076499e-06
1.0008458e-06
1.00092266e-06
1.00099261e-06
1.00105272e-06
1.00110035e-06
1.00000257e-06
1.0000078e-06
1.00001335e-06
1.00001958e-06
1.00002686e-06
1.00003564e-06
1.00004638e-06
1.0000596e-06
1.00007591e-06
1.00009597e-06
1.00012052e-06
1.00015038e-06
1.00018638e-06
1.00022941e-06
1.00028028e-06
1.00033973e-06
1.00040829e-06
1.00048621e-06
1.00057334e-06
1.000669e-06
1.00077188e-06
1.00087999e-06
1.00099059e-06
1.0011003e-06
1.0012052e-06
1.00130109e-06
1.00138379e-06
1.00144949e-06
1.00000295e-06
1.00000898e-06
1.00001542e-06
1.00002267e-06
1.00003121e-06
1.00004158e-06
1.00005436e-06
1.00007021e-06
1.0000899e-06
1.00011431e-06
1.0001444e-06
1.00018128e-06
1.0002261e-06
1.00028009e-06
1.00034443e-06
1.00042023e-06
1.00050838e-06
1.00060939e-06
1.00072326e-06
1.00084929e-06
1.00098592e-06
1.00113056e-06
1.0012796e-06
1.0014284e-06
1.0015715e-06
1.00170294e-06
1.00181674e-06
1.00190741e-06
1.00000339e-06
1.00001029e-06
1.00001767e-06
1.00002602e-06
1.00003598e-06
1.00004817e-06
1.00006326e-06
1.00008211e-06
1.00010572e-06
1.0001352e-06
1.00017182e-06
1.00021705e-06
1.00027245e-06
1.00033973e-06
1.00042058e-06
1.00051665e-06
1.00062932e-06
1.00075956e-06
1.00090767e-06
1.00107302e-06
1.0012538e-06
1.00144675e-06
1.00164711e-06
1.00184858e-06
1.00204354e-06
1.0022236e-06
1.00238016e-06
1.00250529e-06
1.00000385e-06
1.00001168e-06
1.00002006e-06
1.00002964e-06
1.00004113e-06
1.00005524e-06
1.00007289e-06
1.00009518e-06
1.00012328e-06
1.00015858e-06
1.00020277e-06
1.00025777e-06
1.00032569e-06
1.00040886e-06
1.00050969e-06
1.00063055e-06
1.00077358e-06
1.00094044e-06
1.00113195e-06
1.00134775e-06
1.00158585e-06
1.00184226e-06
1.00211077e-06
1.00238288e-06
1.00264807e-06
1.00289444e-06
1.00310967e-06
1.00328228e-06
1.00000431e-06
1.0000131e-06
1.00002257e-06
1.00003344e-06
1.0000465e-06
1.00006271e-06
1.0000832e-06
1.00010922e-06
1.00014224e-06
1.00018417e-06
1.00023706e-06
1.00030331e-06
1.00038579e-06
1.00048766e-06
1.00061228e-06
1.00076306e-06
1.00094318e-06
1.00115535e-06
1.00140127e-06
1.00168114e-06
1.001993e-06
1.00233211e-06
1.00269055e-06
1.00305697e-06