/*--------------------------------*- C++ -*----------------------------------*\
| =========                 |                                                 |
| \\      /  F ield         | foam-extend: Open Source CFD                    |
|  \\    /   O peration     | Version:     4.1                                |
|   \\  /    A nd           | Web:         http://www.foam-extend.org         |
|    \\/     M anipulation  |                                                 |
\*---------------------------------------------------------------------------*/
FoamFile
{
    version     2.0;
    format      ascii;
    class       surfaceScalarField;
    location    "0.45";
    object      meshPhi;
}
// * * * * * * * * * * * * * * * * * * * * * * * * * * * * * * * * * * * * * //

dimensions      [0 3 -1 0 0 0 0];

internalField   nonuniform List<scalar> 
102656
(
-5.78241306e-21
2.75663676e-13
0
0
8.32656366e-13
-5.78241603e-21
3.46944965e-20
1.41144105e-12
5.78241895e-21
-5.46204072e-28
2.03519289e-12
-5.78242244e-21
-2.3129678e-20
2.7292218e-12
-3.15629675e-28
0
3.51876194e-12
-1.15648603e-20
0
4.42920407e-12
5.78243471e-21
-4.62594192e-20
5.48613578e-12
0
-4.62594468e-20
6.71515734e-12
-7.76596072e-28
0
8.14144481e-12
-9.41543696e-28
-4.62595157e-20
9.78903729e-12
0
4.62595519e-20
1.16798351e-11
-5.78247395e-21
-9.25192112e-20
1.3832311e-11
0
-9.25193348e-20
1.62599598e-11
0
0
1.89695391e-11
-5.78251068e-21
9.25195684e-20
2.19591927e-11
-2.53954181e-27
1.85039445e-19
2.52165815e-11
-5.78254623e-21
-9.25198327e-20
2.87171901e-11
-5.78256492e-21
9.25200514e-20
3.24230047e-11
-1.15651694e-20
1.85040438e-19
3.62817754e-11
5.78260531e-21
-9.25203494e-20
4.02270741e-11
5.78262172e-21
-9.25205139e-20
4.41793238e-11
0
-1.85041392e-19
4.80479131e-11
5.78266258e-21
0
5.17344152e-11
0
0
5.51368131e-11
-5.782706e-21
0
5.81545089e-11
5.78272211e-21
0
6.06937848e-11
0
6.26733132e-11
-5.78274625e-21
1.8504248e-19
5.78241305e-21
5.57077521e-13
5.78241305e-21
-1.15648291e-20
1.68253276e-12
5.78241602e-21
1.15648325e-20
2.85188627e-12
-1.66584942e-28
2.31296715e-20
4.11240622e-12
5.78242243e-21
6.93890396e-20
5.51579169e-12
5.78242613e-21
0
7.1136085e-12
0
4.62594001e-20
8.95780623e-12
-5.23724831e-28
9.25188444e-20
1.11008346e-11
5.78244156e-21
9.25189083e-20
1.35952978e-11
-7.95676076e-28
4.62594879e-20
1.64930873e-11
1.15649114e-20
-5.07353502e-27
1.98439443e-11
5.78246411e-21
-1.38778703e-19
2.36934214e-11
-5.78247573e-21
0
2.80802443e-11
-5.78248766e-21
0
3.30331193e-11
-5.78250308e-21
9.25194665e-20
3.85670927e-11
0
-9.25196257e-20
4.46796418e-11
5.78253027e-21
-9.25197773e-20
5.13467578e-11
-5.78255111e-21
1.8503985e-19
5.85193619e-11
5.78256727e-21
9.25201102e-20
6.61204654e-11
0
-9.25202499e-20
7.40435217e-11
-5.78260885e-21
0
8.21524178e-11
0
4.4581021e-26
9.02834876e-11
-5.78265777e-21
0
9.82497989e-11
5.78267966e-21
-1.85041853e-19
1.05847771e-10
0
0
1.12865926e-10
5.78270651e-21
0
1.19095319e-10
0
1.85042593e-19
1.24340926e-10
0
1.28433117e-10
5.78276276e-21
0
-5.78241321e-21
8.54709607e-13
-3.44206262e-29
0
2.58140717e-12
5.78241638e-21
-3.46944988e-20
4.37583386e-12
-1.15648393e-20
0
6.31175861e-12
-1.15648464e-20
2.31296829e-20
8.47004294e-12
5.78242701e-21
-2.3129691e-20
1.09314853e-11
0
-4.62594046e-20
1.37777266e-11
5.5741527e-28
4.6259431e-20
1.70915201e-11
5.78244218e-21
-4.62594619e-20
2.09562681e-11
-5.78245088e-21
-4.62594979e-20
2.54547297e-11
0
-4.62595397e-20
3.06668153e-11
-5.78246937e-21
-6.53350169e-27
3.66664087e-11
5.78247935e-21
1.54971161e-26
4.35172072e-11
0
-9.25194277e-20
5.12676359e-11
-2.10878961e-27
-9.25195694e-20
5.99449901e-11
-5.78252573e-21
9.25197013e-20
6.95490792e-11
5.7825415e-21
-2.83996918e-26
8.00457786e-11
5.78256151e-21
-9.25200152e-20
9.13610355e-11
-5.78258695e-21
-9.25202007e-20
1.03375994e-10
5.78261053e-21
4.0927463e-26
1.15923987e-10
-4.84340174e-27
-4.53696624e-26
1.28790142e-10
-5.78266064e-21
-9.25209347e-20
1.41714279e-10
0
0
1.54397543e-10
0
0
1.6651292e-10
0
1.85042759e-19
1.77719361e-10
-5.78276545e-21
0
1.87678747e-10
0
0
1.96074544e-10
5.78278641e-21
2.02630594e-10
0
3.70086923e-19
1.15648266e-20
1.18125094e-12
5.78241325e-21
0
3.5678938e-12
5.78241674e-21
1.15648338e-20
6.04973049e-12
0
0
8.73126055e-12
0
8.56601025e-28
1.17273318e-11
-5.78242897e-21
2.31296958e-20
1.51530816e-11
5.78243363e-21
0
1.91254035e-11
0
-4.62594505e-20
2.37634993e-11
0
-4.62594823e-20
2.91883736e-11
5.78245553e-21
4.62595339e-20
3.55211229e-11
0
-4.62595658e-20
4.28798836e-11
-5.78247679e-21
9.25192708e-20
5.13753349e-11
5.78248841e-21
-9.25193846e-20
6.11047087e-11
0
2.09342353e-26
7.21443612e-11
-2.41435637e-27
0
8.45410966e-11
-5.78254007e-21
9.25198786e-20
9.83026111e-11
-1.15651269e-20
9.25200792e-20
1.13387636e-10
5.78258577e-21
-9.25202961e-20
1.29696577e-10
-5.78261631e-21
0
1.47063646e-10
0
9.25208161e-20
1.65251648e-10
5.78266933e-21
5.37640431e-26
1.83950597e-10
5.78270619e-21
-9.25212618e-20
2.02781269e-10
5.78273775e-21
2.77564703e-19
2.21304476e-10
0
-1.85043602e-19
2.39036395e-10
-5.78279897e-21
0
2.55469575e-10
-5.7828269e-21
-1.85044244e-19
2.70098576e-10
0
0
2.8244837e-10
0
2.92103131e-10
-1.03473407e-26
-3.70089694e-19
5.78241351e-21
1.54928614e-12
5.78241347e-21
-1.72166762e-28
4.68028433e-12
5.7824174e-21
-1.15648351e-20
7.93951711e-12
-2.1855048e-28
4.62593599e-20
1.14683643e-11
0
1.94627091e-27
1.54226583e-11
-4.27357979e-28
-2.31297041e-20
1.99593404e-11
-5.55835333e-28
0
2.52387495e-11
-7.06997662e-28
9.25189446e-20
3.14256563e-11
-5.78245249e-21
-4.6259512e-20
3.86888378e-11
-1.09871188e-27
9.25191345e-20
4.71989749e-11
0
1.38778872e-19
5.71246582e-11
-5.78248764e-21
9.25193739e-20
6.86263194e-11
5.78250169e-21
0
8.18479731e-11
1.15650423e-20
1.85039445e-19
9.69067852e-11
0
-2.93939052e-26
1.13880675e-10
-5.78256825e-21
0
1.32794416e-10
0
9.2520432e-20
1.53605006e-10
-4.65106767e-27
-9.25206194e-20
1.76187429e-10
-1.15653144e-20
9.25210106e-20
2.00322262e-10
-6.15926478e-27
0
2.25686841e-10
1.15654548e-20
-1.85043165e-19
2.5185183e-10
-5.78277429e-21
9.25219751e-20
2.78284966e-10
-1.15656211e-20
8.03059632e-26
3.04363308e-10
5.78284569e-21
-9.25225992e-20
3.29394688e-10
1.15657782e-20
0
3.52648002e-10
-1.12385132e-26
-3.70092292e-19
3.7339082e-10
5.78295148e-21
1.85046644e-19
3.90931596e-10
0
4.04662767e-10
-5.78302597e-21
-1.85046941e-19
5.78241379e-21
1.97145069e-12
1.15648276e-20
0
5.95705263e-12
-5.7824184e-21
1.15648369e-20
1.01115744e-11
1.15648459e-20
2.31296856e-20
1.46215048e-11
5.78242806e-21
2.31296983e-20
1.96930388e-11
-4.93861938e-28
-2.31297134e-20
2.55350068e-11
0
-4.62594591e-20
3.23623588e-11
0
-4.62595058e-20
4.03979785e-11
-1.15649179e-20
-4.62595515e-20
4.98725414e-11
0
-4.62596115e-20
6.10220901e-11
0
-4.62596825e-20
7.40830092e-11
-1.96120332e-27
0
8.92840837e-11
0
0
1.06835406e-10
-5.78254501e-21
0
1.26914052e-10
1.15651402e-20
9.25202446e-20
1.49646713e-10
-5.78260259e-21
-9.2520498e-20
1.75089822e-10
-5.78263747e-21
-9.25208199e-20
2.0320817e-10
-1.15653473e-20
-9.25211152e-20
2.33853542e-10
0
0
2.66745428e-10
-5.7827664e-21
1.49091827e-25
3.01456338e-10
0
1.85044909e-19
3.37404549e-10
-9.89402063e-27
1.85045771e-19
3.73857067e-10
0
-9.25232083e-20
4.09945119e-10
0
9.25237166e-20
4.44693475e-10
1.33341008e-26
0
4.77063425e-10
1.43884236e-26
0
5.06007344e-10
-1.53368665e-26
-1.85049375e-19
5.30530852e-10
5.7831575e-21
5.49756921e-10
0
1.85049776e-19
-5.7824142e-21
2.46049799e-12
0
-1.15648335e-20
7.4370865e-12
-5.78241932e-21
2.31296787e-20
1.26331995e-11
-5.78242505e-21
2.3129691e-20
1.8290944e-11
0
-2.31297058e-20
2.46789066e-11
0
-1.70640931e-27
3.20708664e-11
-7.55860607e-28
4.62594934e-20
4.07509859e-11
0
4.62595345e-20
5.10168506e-11
5.78246582e-21
4.62596083e-20
6.31799309e-11
5.78248109e-21
4.62596836e-20
7.75629905e-11
-5.7824999e-21
0
9.44939818e-11
1.15650388e-20
9.25197604e-20
1.14295917e-10
-5.78254514e-21
3.08705776e-26
1.37272261e-10
-5.7825706e-21
-9.25202649e-20
1.63687587e-10
-5.78260372e-21
0
1.93743572e-10
-5.7826471e-21
9.25209645e-20
2.27550927e-10
-5.78269786e-21
0
2.65098462e-10
5.78272787e-21
-9.25218411e-20
3.06221329e-10
-8.36920661e-27
0
3.505713e-10
-9.69431384e-27
-9.25229658e-20
3.97592749e-10
5.78292521e-21
-9.25234248e-20
4.46508626e-10
-5.78299452e-21
-1.85048097e-19
4.9632082e-10
0
1.85049359e-19
5.45828775e-10
-5.78313765e-21
-1.43762359e-25
5.9366886e-10
5.7831904e-21
0
6.38374754e-10
0
-1.85052361e-19
6.78456197e-10
0
-3.70105847e-19
7.12490291e-10
0
7.39216775e-10
-5.78342402e-21
0
1.15648292e-20
3.02924998e-12
0
2.31296705e-20
9.15958332e-12
1.15648414e-20
-2.31296841e-20
1.55725325e-11
0
2.31296986e-20
2.25788111e-11
0
2.31297178e-20
3.05243859e-11
0
-2.31297372e-20
3.97644614e-11
5.78245178e-21
-4.62595306e-20
5.06710167e-11
-1.15649291e-20
4.62595808e-20
6.3637741e-11
5.78247605e-21
-4.62596625e-20
7.90816169e-11
5.78249649e-21
4.62597637e-20
9.74404249e-11
0
0
1.19165624e-10
1.15650838e-20
1.55146373e-26
1.44709768e-10
-3.5173081e-27
-9.25203343e-20
1.74507632e-10
5.78260614e-21
0
2.08950473e-10
1.73479443e-20
-5.5165081e-26
2.48353272e-10
-5.78270328e-21
9.25215583e-20
2.92915481e-10
0
9.25220223e-20
3.42676701e-10
1.15656431e-20
9.10787994e-26
3.97469881e-10
0
1.05624293e-25
4.56875937e-10
5.78296727e-21
-1.85048129e-19
5.20185062e-10
-5.78306662e-21
0
5.86371138e-10
-1.61748522e-26
-9.25255626e-20
6.54086139e-10
5.78323636e-21
-2.77579467e-19
7.21680966e-10
5.78335128e-21
-3.74325036e-25
7.87257278e-10
-5.78344607e-21
0
8.48751673e-10
-5.78351147e-21
-3.70113709e-19
9.04048985e-10
5.78359103e-21
0
9.51116368e-10
-2.75966838e-26
9.88145106e-10
-5.78374185e-21
1.85058832e-19
-7.64593225e-29
3.69038695e-12
-7.64593225e-29
0
1.11635266e-11
-5.78242229e-21
2.31296899e-20
1.89978573e-11
0
-2.31297089e-20
2.75882265e-11
5.78243834e-21
1.81566768e-27
3.73762623e-11
0
2.37291874e-27
4.88190453e-11
-1.0471466e-27
0
6.23995893e-11
-5.78247421e-21
-9.25193029e-20
7.86347992e-11
0
9.80631524e-27
9.80789991e-11
-5.78251303e-21
1.22884753e-26
1.21321887e-10
5.78253635e-21
4.6259999e-20
1.48980681e-10
0
0
1.81684992e-10
-5.78260906e-21
0
2.20052933e-10
5.78264959e-21
-9.25211445e-20
2.64657405e-10
-1.15654183e-20
-9.25216816e-20
3.15981948e-10
1.15655379e-20
9.25223008e-20
3.7436644e-10
5.78283732e-21
0
4.39944196e-10
-5.78292002e-21
-9.25237931e-20
5.12573623e-10
0
9.2524795e-20
5.91769603e-10
1.15662335e-20
-1.85051194e-19
6.7664202e-10
-5.78324762e-21
-1.85053173e-19
7.65850929e-10
5.78332915e-21
-1.85055214e-19
8.57589105e-10
-2.35347582e-26
2.22178875e-25
9.49602494e-10
0
2.44113953e-25
1.03925682e-09
0
-1.85061091e-19
1.12365392e-09
-5.78388062e-21
1.85063295e-19
1.19979427e-09
5.78399201e-21
0
1.26477408e-09
1.15681392e-20
1.31599682e-09
1.15682892e-20
-1.85065104e-19
5.78241559e-21
4.45596109e-12
-5.78241568e-21
0
1.3486575e-11
0
-1.1564849e-20
2.29762322e-11
0
2.31297177e-20
3.34214458e-11
0
-2.31297423e-20
4.53814557e-11
-5.78245433e-21
-2.78879015e-27
5.94405255e-11
5.78246707e-21
4.62596184e-20
7.62210076e-11
-5.78248699e-21
-9.22333115e-27
9.63967782e-11
-5.78250643e-21
9.25196664e-20
1.20700079e-10
5.78252977e-21
-9.25199332e-20
1.49919968e-10
-5.78256431e-21
1.85040547e-19
1.84894539e-10
-5.7826034e-21
9.25207084e-20
2.2649358e-10
5.78264574e-21
9.2521209e-20
2.75589017e-10
1.15654037e-20
-9.25218044e-20
3.33011553e-10
5.78276885e-21
9.25223353e-20
3.99491953e-10
-9.65778439e-27
-9.25233189e-20
4.75586817e-10
5.78295241e-21
-1.85048381e-19
5.61590239e-10
-1.40681498e-26
-9.25251587e-20
6.5743503e-10
0
9.25264715e-20
7.62590018e-10
1.1566629e-20
1.9814875e-25
8.75963656e-10
0
-1.85057503e-19
9.95827845e-10
5.78361394e-21
-1.85060733e-19
1.11977849e-09
-5.78378235e-21
-9.25313338e-20
1.24474987e-09
-3.41332726e-26
3.18248232e-25
1.36709733e-09
-5.78416348e-21
-3.7013764e-19
1.48275621e-09
0
0
1.58747441e-09
-5.78448322e-21
-1.8507338e-19
1.67710201e-09
-5.78461491e-21
1.74790807e-09
0
1.85074001e-19
5.78241608e-21
5.33565904e-12
0
-1.15648424e-20
1.61623341e-11
0
1.15648531e-20
2.75715935e-11
5.78243559e-21
4.62594599e-20
4.01770801e-11
5.78244688e-21
2.31297605e-20
5.46826905e-11
0
4.62595872e-20
7.1832184e-11
5.78247632e-21
4.62596752e-20
9.2420147e-11
5.78249622e-21
-9.25195801e-20
1.17318603e-10
5.78252089e-21
-9.25198411e-20
1.47489462e-10
5.78255156e-21
1.76166855e-26
1.83981147e-10
5.78259351e-21
-4.62602956e-20
2.27923409e-10
-5.78264142e-21
9.25211798e-20
2.80509012e-10
-5.78270013e-21
0
3.42957962e-10
-1.15655352e-20
0
4.16462996e-10
-5.7828671e-21
0
5.02112653e-10
5.78294803e-21
-9.25243313e-20
6.00791096e-10
-1.44796534e-26
9.2525509e-20
7.13055529e-10
-1.15664244e-20
-1.85053881e-19
8.38995173e-10
0
-9.25283474e-20
9.78079239e-10
-5.78356311e-21
-9.25297382e-20
1.12900772e-09
0
0
1.28958505e-09
-1.15679287e-20
1.85067524e-19
1.45664175e-09
0
0
1.6260314e-09
5.78440491e-21
-2.77612743e-19
1.79272792e-09
5.7845875e-21
0
1.95103955e-09
-5.78491382e-21
0
2.09493977e-09
5.78506446e-21
0
2.21849351e-09
5.78524178e-21
2.31633281e-09
5.78538306e-21
-3.70172443e-19
1.15648338e-20
6.34567924e-12
0
0
1.92297805e-11
-5.78242797e-21
-7.41803648e-28
3.28361748e-11
-1.15648788e-20
-2.10403202e-27
4.793258e-11
5.7824521e-21
2.31297811e-20
6.54062147e-11
-5.78246885e-21
2.31298211e-20
8.61871629e-11
0
-4.62597487e-20
1.1127291e-10
0
4.62598694e-20
1.41787722e-10
0
4.62600656e-20
1.78991458e-10
0
4.62602576e-20
2.24265503e-10
-4.65881456e-27
0
2.79120397e-10
0
4.62608002e-20
3.45179289e-10
-7.47900311e-27
0
4.24134508e-10
-9.38792405e-27
1.85046658e-19
5.17681695e-10
-5.78294071e-21
9.25243749e-20
6.27420352e-10
0
1.850515e-19
7.54720645e-10
-1.78016801e-26
9.25271833e-20
9.00555524e-10
5.78339185e-21
2.28563702e-25
1.06530249e-09
-5.78362092e-21
9.25311469e-20
1.24852128e-09
-3.12761443e-26
9.25333593e-20
1.44872583e-09
-1.15682401e-20
-9.25357525e-20
1.663179e-09
-4.32054804e-26
1.85076977e-19
1.88774774e-09
5.78466532e-21
1.85082197e-19
2.11686151e-09
-5.67636342e-26
9.25423346e-20
2.34361669e-09
-5.78535509e-21
1.17923757e-24
2.56005826e-09
5.78566562e-21
0
2.75764762e-09
-7.66409903e-26
1.85098281e-19
2.92788931e-09
0
3.06304831e-09
-5.78640118e-21
1.85102375e-19
0
7.4929953e-12
0
-5.39772096e-28
2.27107771e-11
-5.78243017e-21
1.15648621e-20
3.88153011e-11
5.78244282e-21
-2.31297548e-20
5.67669602e-11
-1.15649165e-20
-4.62595913e-20
7.76624567e-11
-5.78247703e-21
4.34621935e-27
1.02649813e-10
0
-4.62598194e-20
1.32994892e-10
0
0
1.70149185e-10
5.78255651e-21
-4.62601581e-20
2.15725186e-10
5.7826078e-21
2.45652491e-26
2.71516099e-10
0
-9.25214489e-20
3.39537048e-10
-5.78273436e-21
-4.62610883e-20
4.21980423e-10
0
9.25232107e-20
5.21171325e-10
0
0
6.39496332e-10
-5.78304842e-21
-9.25257794e-20
7.79275071e-10
5.78322305e-21
-1.91929995e-25
9.4258647e-10
0
9.25291889e-20
1.13104156e-09
1.15672598e-20
0
1.34551127e-09
5.78387653e-21
1.85068946e-19
1.58580541e-09
-5.78421389e-21
9.25372031e-20
1.85032846e-09
0
-9.25394263e-20
2.13575248e-09
-5.78488203e-21
5.4439149e-25
2.43676141e-09
-6.34924608e-26
-9.25465924e-20
2.74593395e-09
5.78569997e-21
-9.25506725e-20
3.05383484e-09
0
0
3.34937379e-09
-5.78662872e-21
-5.55340064e-19
3.62045972e-09
-9.97826938e-26
0
3.85492118e-09
-5.78736438e-21
4.04159233e-09
-5.78763954e-21
1.85122714e-19
-5.78241829e-21
8.77702762e-12
-5.78241844e-21
1.15648505e-20
2.66147935e-11
1.15648644e-20
-1.1564867e-20
4.55414191e-11
-5.7824475e-21
0
6.67310678e-11
-1.15649296e-20
-2.31298098e-20
9.15202941e-11
5.78248399e-21
-2.31298648e-20
1.21337147e-10
-2.1611571e-27
-4.62598823e-20
1.57786555e-10
-5.782544e-21
0
2.02692274e-10
5.78258165e-21
4.62603382e-20
2.58108551e-10
-9.80312237e-27
-4.62605574e-20
3.2638943e-10
-6.34600375e-27
3.67316098e-26
4.10167782e-10
5.78278079e-21
-4.62615053e-20
5.12347099e-10
-1.15657784e-20
0
6.36111915e-10
5.78301248e-21
0
7.84789277e-10
-1.68028722e-26
-1.87641201e-25
9.61699532e-10
1.15667517e-20
1.85058474e-19
1.16993889e-09
-5.7836265e-21
9.25315578e-20
1.41207124e-09
-5.78391332e-21
0
1.6897713e-09
1.15684625e-20
9.25381105e-20
2.00336522e-09
5.78459447e-21
-9.25413858e-20
2.35131769e-09
-1.1570119e-20
9.25466523e-20
2.72972004e-09
0
1.38308188e-24
3.13185491e-09
0
9.25544031e-20
3.54794007e-09
-9.27505889e-26
1.85119755e-19
3.96516327e-09
0
1.8512677e-19
4.36811554e-09
-1.15755907e-20
0
4.73969113e-09
-5.78839109e-21
0
5.06243513e-09
0
5.32019457e-09
0
0
-5.7824192e-21
1.0202365e-11
-5.7824192e-21
0
3.09524286e-11
5.78243425e-21
-1.1564872e-20
5.30245875e-11
0
-3.02403874e-27
7.78390874e-11
5.78246962e-21
-2.31298296e-20
1.07022823e-10
-5.78249437e-21
2.31298924e-20
1.42342385e-10
0
0
1.85788518e-10
-5.78256115e-21
4.62601697e-20
2.39630238e-10
-1.15652135e-20
-4.62604388e-20
3.0649368e-10
-5.78266448e-21
4.62608476e-20
3.89405619e-10
5.7827337e-21
-4.6261217e-20
4.91787209e-10
-9.43914244e-27
-5.47381737e-26
6.17524125e-10
1.1565935e-20
0
7.70865179e-10
0
9.25266124e-20
9.56337728e-10
5.78330846e-21
9.2528709e-20
1.17868356e-09
-1.15671171e-20
9.25312561e-20
1.44244159e-09
-5.78386775e-21
-9.25346588e-20
1.75155433e-09
-3.92606196e-26
9.25383496e-20
2.10896004e-09
-4.84784362e-26
5.20654214e-25
2.5159274e-09
-1.73553322e-20
9.25469047e-20
2.97130213e-09
5.78565241e-21
1.85105967e-19
3.4707222e-09
-1.15727412e-20
-1.85116059e-19
4.00589701e-09
-1.01081424e-25
-2.77692371e-19
4.56410926e-09
0
-1.14431011e-24
5.128108e-09
-5.78849011e-21
-1.85155139e-19
5.67658243e-09
-5.789402e-21
-1.85163555e-19
6.18536788e-09
-5.79013501e-21
1.85175875e-19
6.62940616e-09
0
6.9852668e-09
-1.92562659e-25
-1.85183123e-19
-5.78241994e-21
1.17659539e-11
-1.80826277e-28
-1.15648566e-20
3.57144136e-11
0
-1.15648757e-20
6.1253018e-11
-5.78245552e-21
2.31297972e-20
9.00861901e-11
5.78247557e-21
2.3129854e-20
1.24176774e-10
-1.15650064e-20
-2.31299326e-20
1.65676377e-10
-5.78253352e-21
0
2.17027963e-10
0
0
2.81058838e-10
0
1.38781852e-19
3.61074057e-10
-6.31212415e-27
0
4.60904329e-10
-8.26869939e-27
0
5.85000054e-10
0
-9.25244177e-20
7.3844605e-10
5.78302979e-21
0
9.26869139e-10
0
-9.25279843e-20
1.15648894e-09
-2.3147134e-26
-1.85061333e-19
1.43389382e-09
0
9.25336613e-20
1.76553019e-09
5.78410064e-21
-9.253745e-20
2.15733807e-09
5.78453287e-21
5.17541145e-25
2.61420028e-09
5.78499425e-21
0
3.13898762e-09
-7.20558118e-26
-9.25534444e-20
3.73148175e-09
0
-2.77682967e-19
4.38720469e-09
-5.78730796e-21
-9.25668909e-20
5.09624908e-09
-5.78823679e-21
1.85153447e-19
5.84238179e-09
-1.47829958e-25
1.85168792e-19
6.60263778e-09
-1.70526762e-25
0
7.34773206e-09
0
-1.85200084e-19
8.04360571e-09
5.79212419e-21
0
8.65424404e-09
-2.3416892e-25
9.14553972e-09
0
-1.85222737e-19
-5.78242063e-21
1.34588872e-11
-5.78242063e-21
-1.15648602e-20
4.08741318e-11
-5.78243914e-21
3.4694642e-20
7.01831316e-11
-5.78245824e-21
0
1.03411976e-10
-5.78248275e-21
1.00532919e-26
1.42905472e-10
1.15650232e-20
-2.31299539e-20
1.91255984e-10
-2.95823634e-27
4.62601161e-20
2.51435115e-10
-5.78259141e-21
0
3.2692045e-10
0
0
4.21818022e-10
5.78272912e-21
4.62612373e-20
5.40971362e-10
0
1.38785519e-19
6.90067655e-10
0
-9.25250785e-20
8.75644628e-10
5.78312888e-21
0
1.10515085e-09
5.78334367e-21
-9.25296903e-20
1.38703439e-09
5.78361689e-21
0
1.7303251e-09
5.78396129e-21
1.85072614e-19
2.14395432e-09
-5.78443361e-21
-4.9475624e-25
2.63659862e-09
0
9.25478005e-20
3.21610279e-09
-5.78555784e-21
1.8510802e-19
3.88791941e-09
0
-9.256105e-20
4.65366318e-09
-5.78733838e-21
-2.77709916e-19
5.50943581e-09
-5.78840708e-21
-9.25799036e-20
6.44393096e-09
0
0
7.43693847e-09
5.79074599e-21
0
8.45836052e-09
-5.79232567e-21
1.85225537e-19
9.46831792e-09
-2.45242005e-25
0
1.04189771e-08
5.79482723e-21
0
1.12585132e-08
-5.79632486e-21
1.19370358e-08
-5.79732515e-21
1.85282738e-19
-2.08956506e-28
1.52657155e-11
-5.78242123e-21
0
4.63849792e-11
0
-1.1564887e-20
7.97361306e-11
5.78246149e-21
2.31298189e-20
1.17703079e-10
1.15649725e-20
-2.31298911e-20
1.63057997e-10
-2.33060395e-27
2.31299866e-20
2.18891305e-10
-5.78255921e-21
4.62602082e-20
2.88779846e-10
-4.31885209e-27
-4.62605158e-20
3.7695397e-10
-5.78268469e-21
4.62609185e-20
4.88464226e-10
-5.78276769e-21
-4.62613981e-20
6.29343164e-10
0
9.25242582e-20
8.06754612e-10
-1.34946402e-26
-9.25259528e-20
1.02910294e-09
-5.78323164e-21
-9.25283192e-20
1.30610935e-09
5.78346221e-21
-2.73875061e-25
1.64889306e-09
0
-1.85069507e-19
2.06952715e-09
1.15684089e-20
-4.54039117e-25
2.58052278e-09
-5.7847442e-21
-9.25453164e-20
3.19467806e-09
0
7.30660457e-25
3.92367724e-09
5.78602825e-21
9.13772853e-25
4.77662372e-09
0
1.13085584e-24
5.75864586e-09
0
-9.25824512e-20
6.86773874e-09
-1.57085331e-25
1.66676293e-24
8.0918552e-09
-5.7914061e-21
-1.85217948e-19
9.40671383e-09
-1.15856423e-20
9.26251253e-20
1.0773739e-08
-5.79478145e-21
0
1.2139342e-08
-5.79668153e-21
0
1.34367254e-08
-5.79853396e-21
1.85334578e-19
1.45912318e-08
0
1.55293858e-08
0
-1.8534706e-19
5.7824215e-21
1.71639374e-11
0
0
5.21787027e-11
0
0
8.97951031e-11
1.1633024e-27
-2.31298328e-20
1.32787931e-10
-5.78249215e-21
5.74527067e-27
1.84399089e-10
5.78252311e-21
-4.62600176e-20
2.48271962e-10
1.73476988e-20
-4.62602512e-20
3.28663173e-10
0
4.626058e-20
4.30658617e-10
-5.78269853e-21
3.80712373e-26
5.60396317e-10
0
9.25232709e-20
7.25293518e-10
-1.10964887e-26
6.727384e-26
9.34269005e-10
-1.1566186e-20
-4.62632242e-20
1.19794188e-09
0
-9.2529405e-20
1.52878521e-09
5.78360148e-21
-9.2532449e-20
1.94119361e-09
1.15679131e-20
9.25366402e-20
2.45114603e-09
-5.78440649e-21
-5.17445134e-25
3.07603578e-09
1.15700608e-20
0
3.83393818e-09
-5.78582694e-21
9.25569437e-20
4.74196324e-09
-1.15735666e-20
9.25681481e-20
5.81511614e-09
-1.20099813e-25
1.34213887e-24
7.06380325e-09
5.78923337e-21
2.77784028e-19
8.48970691e-09
1.15817786e-20
-9.26100168e-20
1.00817826e-08
0
9.2630771e-20
1.18124253e-08
5.79498588e-21
9.26480172e-20
1.36338262e-08
-5.79769166e-21
1.85336301e-19
1.54754159e-08
-3.85811051e-25
0
1.7244788e-08
-5.80275637e-21
-8.2284477e-24
1.88343481e-08
-4.90708899e-25
2.01348432e-08
0
-1.85435588e-19
-5.78242205e-21
1.91238232e-11
5.78242205e-21
0
5.81647893e-11
-1.15648864e-20
3.46946711e-20
1.0020372e-10
5.78246717e-21
0
1.48434025e-10
-1.15649885e-20
4.62598457e-20
2.06603745e-10
-5.78252763e-21
-2.31300256e-20
2.78957901e-10
0
-4.62603002e-20
3.70500795e-10
-4.83844695e-27
-3.00858508e-26
4.87269987e-10
5.78270753e-21
4.04421287e-26
6.36627464e-10
-8.81599744e-27
4.62618504e-20
8.2756777e-10
5.78294629e-21
-9.25251272e-20
1.07103506e-09
-1.15662691e-20
0
1.3802299e-09
-2.10812873e-26
-9.25303838e-20
1.77087178e-09
1.15673823e-20
9.2533821e-20
2.26135606e-09
5.78408525e-21
4.42963192e-25
2.87269716e-09
5.78461516e-21
0
3.62827908e-09
5.78523433e-21
-9.25532961e-20
4.55285866e-09
-5.78616932e-21
9.25633231e-20
5.67140833e-09
-1.07488681e-25
9.25770197e-20
7.00761787e-09
-1.37910716e-25
1.567112e-24
8.57984595e-09
5.79033564e-21
-9.26091617e-20
1.03962456e-08
5.79237674e-21
2.4207693e-24
1.24496649e-08
5.79506202e-21
-1.85306211e-19
1.47115923e-08
0
9.26740633e-20
1.71258999e-08
0
0
1.96026131e-08
0
3.7093516e-19
2.20159293e-08
0
3.7102158e-19
2.42110616e-08
-6.21807409e-25
2.60233962e-08
0
-3.71108278e-19
5.78242196e-21
2.11086754e-11
5.78242196e-21
1.15648658e-20
6.42312027e-11
1.15648873e-20
1.15648924e-20
1.10767277e-10
-1.22165668e-27
4.62596914e-20
1.6434888e-10
0
1.22317313e-26
2.29257441e-10
-2.61985987e-27
-2.31300269e-20
3.10377893e-10
5.78257581e-21
-4.62603535e-20
4.1351791e-10
-5.78264142e-21
0
5.45748548e-10
-6.7629421e-27
-4.62611952e-20
7.15775842e-10
0
9.25237692e-20
9.3434684e-10
-5.78298219e-21
7.61970196e-26
1.21468496e-09
5.78317922e-21
0
1.57293697e-09
5.78341905e-21
9.2530912e-20
2.02859563e-09
-5.78378869e-21
0
2.60483527e-09
-5.78428653e-21
-4.80843807e-25
3.32866434e-09
-5.78484772e-21
0
4.23077534e-09
-6.96776268e-26
9.25569961e-20
5.34484849e-09
5.78655119e-21
0
6.70620733e-09
5.7877006e-21
9.25846682e-20
8.3497648e-09
5.78942672e-21
0
1.03063237e-08
0
0
1.25959282e-08
5.79390903e-21
-9.26473416e-20
1.52191597e-08
0
9.26774719e-20
1.81510359e-08
5.80038926e-21
2.78138722e-19
2.13323142e-08
0
1.85506516e-19
2.46544748e-08
5.80940157e-21
0
2.79510107e-08
-8.52398718e-21
0
3.10009493e-08
-2.2846379e-20
3.35520199e-08
-1.11847213e-20
-1.857088e-19
0
2.30756119e-11
0
0
7.02467229e-11
-5.78244371e-21
-1.15648935e-20
1.21256597e-10
-1.21307131e-27
-2.31298471e-20
1.80185505e-10
-5.78249617e-21
6.11075227e-27
2.51863113e-10
-2.61430606e-27
0
3.4183779e-10
-1.15651557e-20
4.62603609e-20
4.56758021e-10
5.78263762e-21
0
6.04787293e-10
5.78272023e-21
4.62612696e-20
7.96067199e-10
5.78283136e-21
-9.25238259e-20
1.04323761e-09
0
-1.38788503e-19
1.36201411e-09
-5.78319887e-21
4.62640684e-20
1.77180984e-09
-1.15669485e-20
0
2.29636933e-09
-3.09675556e-26
0
2.96435352e-09
1.15686233e-20
0
3.80977611e-09
0
-6.77587578e-25
4.87214067e-09
-1.1571602e-20
0
6.19605184e-09
-1.15739182e-20
1.18203556e-24
7.83003049e-09
1.15767011e-20
1.54612211e-24
9.82414839e-09
-1.70509854e-25
0
1.22265176e-08
1.15851184e-20
-9.26352152e-20
1.50751331e-08
5.79537013e-21
0
1.83877807e-08
-5.79934014e-21
9.27049891e-20
2.21539565e-08
5.80333457e-21
-1.02089791e-23
2.63198278e-08
5.808481e-21
-1.24080826e-23
3.07659662e-08
3.12581598e-21
0
3.52855589e-08
-2.01358125e-20
0
3.95702137e-08
-1.74830944e-20
4.32260959e-08
-1.75006104e-20
-1.85906773e-19
5.78242152e-21
2.49769029e-11
5.78242174e-21
0
7.60650225e-11
0
-2.31297797e-20
1.31415061e-10
-5.78246584e-21
4.62596742e-20
1.95552839e-10
-1.7772049e-27
-2.31299094e-20
2.73855695e-10
-2.54340311e-27
-4.6260055e-20
3.72540037e-10
-3.55066051e-27
-2.26807173e-26
4.99108334e-10
4.89773876e-27
0
6.62843677e-10
-5.7827151e-21
4.23403832e-26
8.75373006e-10
0
4.62619566e-20
1.15131487e-09
-1.24989439e-26
-4.62628348e-20
1.50901971e-09
-1.70009374e-26
-1.38792506e-19
1.97139831e-09
-5.78347806e-21
0
2.56681476e-09
0
-9.25361556e-20
3.32999102e-09
5.78432282e-21
0
4.3028271e-09
-5.7020475e-26
0
5.5349801e-09
1.15718289e-20
-9.40051206e-25
7.083962e-09
-1.0268524e-25
-9.25751486e-20
9.01442003e-09
-5.78873915e-21
1.8519029e-19
1.13961469e-08
0
9.26192932e-20
1.43002941e-08
-2.39828575e-25
9.26500827e-20
1.7791586e-08
-3.14152976e-25
3.68856065e-24
2.1919516e-08
-4.0843894e-25
9.27326122e-20
2.67065525e-08
-1.43219209e-20
-9.27960004e-20
3.21243323e-08
-1.69879324e-20
0
3.80651069e-08
-1.42941541e-20
1.85867344e-19
4.43026833e-08
-2.33207813e-20
1.86023777e-19
5.04320849e-08
-2.91990701e-20
5.5830724e-08
-1.1698777e-20
-1.86158842e-19
-5.78242112e-21
2.67618525e-11
-5.78242112e-21
-1.15648633e-20
8.15304273e-11
-6.32064424e-28
-2.31297705e-20
1.40968708e-10
5.78246151e-21
0
2.10031133e-10
5.78248557e-21
2.31299119e-20
2.94624318e-10
-5.78252253e-21
6.93900077e-20
4.016149e-10
-3.36245652e-27
0
5.39342971e-10
0
-9.25213241e-20
7.18198611e-10
0
-4.62611282e-20
9.51289836e-10
-5.78281727e-21
4.62618588e-20
1.25522627e-09
-1.20171696e-26
7.58565894e-26
1.65103657e-09
-5.78317046e-21
0
2.16522729e-09
-5.78344727e-21
1.85062931e-19
2.83097383e-09
1.15676154e-20
-9.25362882e-20
3.68940661e-09
-5.78433184e-21
0
4.79091393e-09
-5.78501921e-21
9.25503935e-20
6.19632051e-09
-7.64828491e-26
9.25615209e-20
7.97771488e-09
-5.78718642e-21
9.2577632e-20
1.02185896e-08
-5.78884485e-21
0
1.301283e-08
-1.15820975e-20
-9.26219309e-20
1.64619492e-08
0
0
2.06697706e-08
-5.7977885e-21
9.27043092e-20
2.57346439e-08
5.80235302e-21
0
3.17381872e-08
-5.80947742e-21
-9.28314273e-20
3.87240246e-08
-1.74518682e-20
-1.85866382e-19
4.66560844e-08
-1.1655129e-20
-1.86097198e-19
5.53532568e-08
-2.33626061e-20
1.86329285e-19
6.43575039e-08
-1.75680125e-20
7.2700442e-08
-1.17421528e-20
-1.86566722e-19
1.15648403e-20
2.83791444e-11
-5.78242022e-21
1.1564858e-20
8.64851332e-11
0
1.15648801e-20
1.49639002e-10
-1.00270422e-27
-4.62596236e-20
2.23191696e-10
0
-2.31298731e-20
3.13541398e-10
-2.1877269e-27
2.31299839e-20
4.28162457e-10
-1.15651007e-20
0
5.76183015e-10
5.78260843e-21
-2.72571779e-26
7.69041796e-10
-5.7826774e-21
-4.6260987e-20
1.02126001e-09
0
-4.62615678e-20
1.35136197e-09
-5.78291419e-21
-9.25249683e-20
1.78297408e-09
-1.52583401e-26
1.38791096e-19
2.34612476e-09
0
0
3.07875493e-09
0
9.25349624e-20
4.02842704e-09
-1.15684457e-20
-9.25409516e-20
5.25418586e-09
-5.7849402e-21
9.25490854e-20
6.8284731e-09
-5.78578884e-21
-9.25610268e-20
8.83893031e-09
0
9.25762636e-20
1.13898524e-08
-5.78853361e-21
0
1.46030035e-08
5.79072326e-21
9.26245959e-20
1.86175297e-08
0
9.26589961e-20
2.35888629e-08
-3.37587862e-25
2.78134528e-19
2.96868889e-08
8.92605515e-21
5.7026297e-24
3.70933844e-08
-2.00819637e-20
-7.75565946e-24
4.59973141e-08
-1.74617065e-20
0
5.65704849e-08
-2.33398008e-20
0
6.88609851e-08
-5.85535893e-21
1.86814587e-19
8.25387388e-08
-1.17580417e-20
9.61994254e-08
-5.90659827e-21
4.84889255e-23
-5.78241906e-21
2.97795041e-11
1.1564838e-20
-1.15648541e-20
9.07774231e-11
0
-1.15648726e-20
1.57157462e-10
-5.78245174e-21
-4.62595802e-20
2.34619738e-10
0
-2.31298482e-20
3.29996771e-10
-5.78249949e-21
-2.31299221e-20
4.51302753e-10
0
4.62600921e-20
6.08369728e-10
-5.78258357e-21
4.62603733e-20
8.13578366e-10
-5.78264957e-21
4.62608159e-20
1.08272677e-09
-7.10852246e-27
-4.62613457e-20
1.43608025e-09
5.7828545e-21
-4.62620566e-20
1.8996438e-09
-5.78302152e-21
0
2.506696e-09
0
9.25295163e-20
3.29961575e-09
-5.78359161e-21
-9.2533281e-20
4.33202031e-09
-5.78406868e-21
-4.46501367e-25
5.67121126e-09
-4.82282493e-26
2.77639443e-19
7.40089633e-09
5.78540354e-21
9.25565601e-20
9.62413147e-09
5.78651571e-21
-1.85141292e-19
1.24664448e-08
0
1.57972098e-24
1.60792461e-08
1.15804263e-20
1.85235502e-19
2.06440426e-08
-2.34362632e-25
-9.2653839e-20
2.63789094e-08
3.09875579e-21
4.15619904e-24
3.3550297e-08
-1.4272768e-20
2.78359171e-19
4.24952006e-08
-1.74328768e-20
1.85799156e-19
5.36587728e-08
-1.16453582e-20
0
6.76437999e-08
-1.16812227e-20
1.86670217e-19
8.5191906e-08
-1.17364891e-20
0
1.06667792e-07
-1.18212513e-20
1.30193957e-07
-1.78861944e-20
0
0
3.09184953e-11
0
0
9.42702976e-11
5.78242943e-21
1.15648626e-20
1.6328106e-10
0
-6.93892896e-20
2.43938572e-10
5.78246028e-21
2.31298149e-20
3.4343416e-10
0
-2.31298772e-20
4.70229998e-10
0
-4.62599341e-20
6.34744785e-10
5.78254946e-21
0
8.50147649e-10
-5.782607e-21
0
1.13331032e-09
0