/*--------------------------------*- C++ -*----------------------------------*\
| =========                 |                                                 |
| \\      /  F ield         | foam-extend: Open Source CFD                    |
|  \\    /   O peration     | Version:     4.1                                |
|   \\  /    A nd           | Web:         http://www.foam-extend.org         |
|    \\/     M anipulation  |                                                 |
\*---------------------------------------------------------------------------*/
FoamFile
{
    version     2.0;
    format      ascii;
    class       volScalarField;
    location    "0.45";
    object      p;
}
// * * * * * * * * * * * * * * * * * * * * * * * * * * * * * * * * * * * * * //

dimensions      [0 2 -2 0 0 0 0];

internalField   nonuniform List<scalar> 
35840
(
79.3791573
64.7348538
55.6698684
51.3495031
48.3986049
46.0592495
44.2191899
42.7042168
41.3783094
40.1711935
39.0454914
37.978286
36.9548977
35.9656439
35.003727
34.0640619
33.1426788
32.2363939
31.3426259
30.4592809
29.5846676
28.7174423
27.8565672
27.0012745
26.1510359
25.3055353
24.4646413
23.628382
72.499157
62.0934204
54.907837
51.127964
48.3589836
46.0764628
44.2563882
42.7515249
41.4276127
40.2174983
39.0871843
38.0151263
36.9870593
35.9934957
35.0277211
34.08465
33.1602733
32.2513687
31.3553174
30.4699798
29.5936252
28.7248811
27.8626889
27.0062642
26.1550663
25.3087689
24.4672332
23.6304799
69.3085659
60.5444289
54.1905559
50.6888136
48.104263
45.9475133
44.1996052
42.7375211
41.4390806
40.2430597
39.1199282
38.0509953
37.0236594
36.0294643
35.0623192
34.117483
33.1911267
32.2801166
31.3818746
30.4942872
29.6156407
28.7445726
27.8800352
27.0212604
26.1677278
25.3191367
24.4753768
23.6364997
67.6915829
59.3561279
53.4578111
50.2313617
47.8387671
45.8210596
44.1612003
42.7513822
41.4831246
40.3032394
39.1874739
38.1207071
37.092587
36.0960292
35.1257458
34.1774263
33.2474461
32.3327489
31.4307707
30.539385
29.6568589
28.7818195
27.9132168
27.0502938
26.1925557
25.3397404
24.4917885
23.6488107
66.5909835
58.388226
52.7835549
49.7992317
47.5773652
45.687966
44.1195333
42.7695667
41.5384801
40.3804115
39.2762312
38.2144313
37.1871417
36.1889143
35.215499
34.2632124
33.3287839
32.4093387
31.5023923
30.6058412
29.7179517
28.8373474
27.9629811
27.0941121
26.2302817
25.3712829
24.5171295
23.6680207
65.7934318
57.6616815
52.2277435
49.4076647
47.3161224
45.533992
44.0503632
42.7622321
41.5739757
40.4445535
39.358693
38.3078362
37.2863346
36.2903441
35.3167293
34.3625564
33.4250425
32.5016182
31.5899819
30.6881343
29.794406
28.9074639
28.0262998
27.1502236
26.278844
25.4120434
24.5499461
23.6928809
65.1943695
57.1035808
51.7684169
49.0573393
47.06413
45.3687135
43.9580074
42.7272984
41.5823514
40.484744
39.4216626
38.3866211
37.3756542
36.3862211
35.4161554
34.463224
33.5251386
32.5996703
31.6847464
30.7785218
29.8794363
28.9862379
28.0979963
27.2141085
26.334289
25.4585504
24.5871742
23.7206702
64.7280678
56.6616031
51.3875546
48.7507281
46.8310034
45.2039436
43.8534192
42.672894
41.5682871
40.5023578
39.4636861
38.4471078
37.4498072
36.4701813
35.5067978
34.5579813
33.6218562
32.6964917
31.7800251
30.8707644
29.9672613
29.0683552
28.1732096
27.2813296
26.3925638
25.507092
24.6253983
23.7482288
64.3563659
56.3057093
51.0718132
48.4864194
46.6211736
45.0474233
43.7458582
42.6081014
41.539629
40.503545
39.4891064
38.4919213
37.5099029
36.5420736
35.5875103
34.6449368
33.7127795
32.7893272
31.8728747
30.9618425
30.0548641
29.150854
28.2490608
27.3490992
26.4509656
25.5550346
24.6620357
23.773008
64.0555054
56.01574
50.8093693
48.260419
46.4358865
44.9038175
43.6420123
42.540374
41.503696
40.494974
39.5036836
38.525817
37.5597033
36.6047441
35.6603358
34.7254571
33.7987242
32.878558
31.9633411
31.0515455
30.1418385
29.2331716
28.3248497
27.4165819
26.5085134
25.601235
24.6957634
23.7934918
63.8096212
55.777663
50.5908995
48.0685056
46.2748732
44.7756495
43.546242
42.4750605
41.4661629
40.4822104
39.5126188
38.5534989
37.6033663
36.661811
35.7283935
34.8022197
33.8819898
32.9661684
32.0531452
31.1413715
30.2294854
29.3164185
28.4014864
27.4844627
26.5656316
25.6458141
24.7263575
23.8090837
63.6076483
55.5814925
50.4091955
47.9067014
46.1369552
44.6639191
43.4611175
42.4157261
41.4311056
40.469491
39.5200841
38.5789429
37.644608
36.7167136
35.7948585
34.8781646
33.965319
33.0547396
32.144734
31.2336508
30.3200186
29.4026735
28.480876
27.5544139
26.6236858
25.689752
24.7543399
23.8197906
63.4415604
55.4198588
50.2585777
47.7714061
46.0205073
44.568672
43.3879769
42.3646106
41.4013192
40.4598967
39.5292594
38.6053113
37.6865097
36.7724287
35.8626055
34.9560856
34.0514529
33.1469842
32.240813
31.3310881
30.4161282
29.4945741
28.5655382
27.6287475
26.6846692
25.7346009
24.7807032
23.8259514
63.3053172
55.2871352
50.1344925
47.6594392
45.9237433
44.4893801
43.3273247
42.3229941
41.3786179
40.4555778
39.5424838
38.6350352
37.7315393
36.831438
35.9341337
35.0385195
34.1429902
33.2455914
32.3441819
31.4365982
30.5208251
29.5951773
28.6584899
27.7103154
26.7511105
25.7823876
24.806795
23.8280866
63.1942179
55.178892
50.0332148
47.5680015
45.8448511
44.4251714
43.2791011
42.2914652
41.3640753
40.4579505
39.5614068
38.6699214
37.7816182
36.8957634
36.0115752
35.1277301
34.24236
33.3531917
32.4577017
31.5532841
30.6374377
29.70798
28.7632891
27.8025734
26.8261466
25.8356754
24.8343431
23.826864
63.1044886
55.0915371
49.9516274
47.4946125
45.7820546
44.3749699
43.2428626
42.2701106
41.3582003
40.4678479
39.5871068
38.7112398
37.8381798
36.9670018
36.096706
35.2257065
34.3518129
33.4723492
32.5842971
31.6844608
30.7696674
29.837014
28.8841732
27.9097568
26.913719
25.8977522
24.865596
23.8231477
63.0330096
55.0220758
49.8870621
47.4370477
45.7336349
44.3375763
43.2178962
42.2586424
41.3610599
40.4856261
39.6201747
38.7597824
37.9022087
37.0463371
36.1909387
35.3341439
34.4733947
33.6055387
32.7269493
31.8336774
30.9216548
29.9869718
29.0262529
28.0371411
27.01888
25.9729392
24.9035695
23.8181119
62.9771325
54.9679465
49.8371841
47.3932841
45.6979315
44.3117125
43.2032921
42.2564819
41.3723618
40.5112342
39.6607687
38.815902
37.9742497
37.1345263
36.2952922
35.454395
34.6088882
33.7550876
32.8886532
32.0047091
31.0980315
30.163342
29.195751
28.1913877
27.1482247
26.0670494
24.952434
23.8134385
62.9345545
54.926907
49.7999086
47.3614552
45.6733353
44.2960455
43.1979871
42.2628134
41.3915063
40.5442618
39.7086511
38.8795215
38.0543934
37.2318649
36.4103299
35.5873861
34.7597117
33.923067
33.0723178
32.2014943
31.3039283
30.3725294
29.4002738
28.3809893
27.3104908
26.1880608
25.0181031
23.8116194
62.9032323
54.8969554
49.7733417
47.3398163
45.6582794
44.2891995
43.2007933
42.2766177
41.4176244
40.5839741
39.7632009
38.9501262
38.1422503
37.3381302
36.5360704
35.7334936
34.926763
34.1111132
33.2805851
32.4279817
31.5448998
30.621923
29.6490954
28.6168298
27.5174038
26.3471431
25.1091875
23.8164489
62.8813234
54.8762771
49.7557389
47.3267204
45.6512323
44.2897658
43.2104135
42.2967015
41.4496117
40.6293274
39.8234147
39.0267524
38.2369101
37.4525061
36.6718709
35.8923775
35.1102014
34.3201613
33.5155308
32.6878357
31.8266983
30.9198355
29.9533865
28.9128328
27.7848234
26.5602614
25.2387367
23.8342329
62.867149
54.8632101
49.7454803
47.3206048
45.6506969
44.2963049
43.2254669
42.3217306
41.4861451
40.6789808
39.8879159
39.1079737
38.3368986
37.5734991
36.8162885
36.0627763
35.3091618
34.5500703
33.7782074
32.983932
32.1547997
31.2751914
30.3262578
29.2865707
28.1340677
26.8501339
25.4264152
23.8753885
62.859174
54.8562238
49.7410557
47.319986
45.6552074
44.3073712
43.2445213
42.3502455
41.5257042
40.7313243
39.9549687
39.1918961
38.440143
37.6988596
36.966938
36.2422745
35.5214037
34.7991274
34.067988
33.3175549
32.5335338
31.6967865
30.7824933
29.7599532
28.5939464
27.2493522
25.7009301
23.953273
62.8560106
54.853912
49.7410548
47.323459
45.6633569
44.3215435
43.2661054
42.3806884
41.5666133
40.7845155
40.0225085
39.2761748
38.5439625
37.8255277
37.1203665
36.4270698
35.7429214
35.0634398
34.3816778
33.687187
32.9645798
32.1916701
31.3373322
30.3595611
29.2048015
27.8108237
26.1170971
24.0999311
62.8563865
54.8549926
49.7441889
47.3297206
45.6738135
44.3374343
43.2887385
42.4114548
41.6070934
40.8365356
40.0881994
39.3580666
38.6451052
37.9496351
37.2719889
36.6117927
35.9675735
35.3362719
34.7124247
34.0868455
33.4445894
32.7619689
32.0025279
31.1121432
30.0147625
28.6101145
26.7809046
24.4278212
62.859131
54.8583262
49.749309
47.3375757
45.6853274
44.3537196
43.3109842
42.4409495
41.6453288
40.8852697
40.149527
39.4345319
38.7398512
38.0665948
37.4161343
36.7894545
36.1868402
35.6074601
35.0485761
34.5041093
33.962147
33.4007558
32.7812643
32.03787
31.0644278
29.6989272
27.7418609
24.9464211
62.8632325
54.8629245
49.7554002
47.3459515
45.6967726
44.3691867
43.3315016
42.4676521
41.6795521
40.9286125
40.2039286
39.5023934
38.8242019
38.171316
37.5462681
36.9516312
36.3898665
35.8631204
35.3726986
34.9179127
34.4937436
34.0863073
33.6639333
33.1596051
32.4368658
31.2253635
29.0825115
25.1352002
62.8678639
54.8679541
49.761601
47.3539419
45.7071817
44.3827766
43.3491015
42.4901917
41.7081408
40.964595
40.2489596
39.5585542
38.8941637
38.2585684
37.6554486
37.089004
36.5640277
36.0860457
35.6613177
35.2964909
34.9975293
34.7670749
34.5980127
34.4582818
34.2538669
33.7370746
32.2022177
26.8672485
72.6583902
62.2162982
54.9806144
51.1521452
48.3474769
46.0401174
44.2033763
42.6891278
41.3618326
40.1526584
39.0260749
37.9593248
36.937254
35.9497788
34.989827
34.0521277
33.1325996
32.2280079
31.3357548
30.4537447
29.5802936
28.7140686
27.8540422
26.9994559
26.1497894
25.304733
24.4641619
23.6281096
64.9386613
59.5444142
54.6235393
51.3496969
48.6789734
46.3663232
44.4718325
42.9007602
41.5281373
40.2838118
39.1310649
38.0451293
37.0085968
36.0098157
35.0407775
34.0956177
33.1698581
32.2599991
31.3632597
30.4774089
29.600661
28.731606
27.8691578
27.0125118
26.1611113
25.3146175
24.4728806
23.6359124
61.698282
58.1951241
54.2022549
51.1321181
48.5979325
46.3901869
44.5367545
42.9752961
41.6029265
40.3548859
39.1967971
38.1054671
37.0639788
36.0606996
35.0875703
34.1386598
33.2094152
32.2962709
31.3963959
30.5075241
29.6278458
28.7559351
27.8906985
27.0313321
26.1772873
25.3282396
24.484059
23.6447804
60.1218129
57.0391956
53.5257104
50.7358525
48.3909686
46.3236903
44.5542259
43.0359515
41.6847411
40.445143
39.2878829
38.1934589
37.1472013
36.1385966
35.1601094
34.2060301
33.2718598
32.3540045
31.4495749
30.5562436
29.6721492
28.7958293
27.9261702
27.0623657
26.2038815
25.3504226
24.5019014
23.6584052
59.0158954
56.0400602
52.8411365
50.3217111
48.1507388
46.20723
44.5262944
43.0658325
41.7503395
40.5316131
39.3850533
38.2946138
37.248197
36.2369992
35.2545446
34.295756
33.3564866
32.4333163
31.5234257
30.6245029
29.7346795
28.8524825
27.9767959
27.1068265
26.2420717
25.382288
24.5274573
23.6777514
58.2085243
55.2950163
52.2750535
49.9339969
47.8935201
46.0521519
44.453273
43.0537727
41.7811559
40.5918809
39.464771
38.3862904
37.346414
36.3379583
35.3556108
34.3950932
33.452791
32.5256241
31.6109807
30.7066725
29.810906
28.922261
28.039669
27.1623923
26.2900005
25.422342
24.5595116
23.701812
57.6013734
54.7234525
51.8032576
49.5790278
47.6393365
45.8828605
44.3552383
43.0123266
41.7827479
40.6256375
39.5221128
38.4603794
37.4318922
36.430708
35.4524761
34.4936304
33.5510721
32.6220846
31.7043058
30.7957182
29.8946484
28.9997703
28.1101028
27.2250028
26.3441523
25.467536
24.5954103
23.7282632
57.1280904
54.2706065
51.411251
49.2666856
47.4035352
45.7151289
44.2467222
42.9533312
41.7637183
40.638259
39.5594459
38.5166484
37.5023314
36.511425
35.5402876
34.5859023
33.6455846
32.7169229
31.7977748
30.8862803
29.980885
29.0803624
28.1838304
27.2907596
26.4009711
25.5146216
24.6321752
23.7543607
56.7507077
53.906554
51.0870409
48.9975232
47.191326
45.5565421
44.1367504
42.8858336
41.7321458
40.6364525
39.5819569
38.5587449
37.5599396
36.5810576
35.6189509
34.670995
33.7348046
32.8081894
31.8891651
30.9759841
30.0671779
29.1615972
28.2584467
27.3573086
26.4581549
25.5613393
24.6675749
23.7778879
56.4453926
53.6104688
50.8181744
48.7675397
47.0039747
45.4114649
44.0315023
42.8166807
41.6947331
40.6263693
39.5950522
38.5912374
37.6084324
36.6425148
35.6906503
34.7504673
33.8197702
32.8965011
31.9787607
31.064854
30.1533476
29.2431285
28.3334569
27.4240088
26.5149056
25.6067205
24.7004564
23.7974947
56.1960497
53.3677422
50.5947934
48.5724487
46.841264
45.2822359
43.9349175
42.7506645
41.6565347
40.6129563
39.6033681
38.618344
37.6515658
36.6990928
35.7582539
34.8268058
33.9026388
32.9837373
32.068208
31.154337
30.2406602
29.3260423
28.4097533
27.4915346
26.5716462
25.6508906
24.7306022
23.8125935
55.9913945
53.1679947
50.4092975
48.4081262
46.7019591
45.1696939
43.8492831
42.6909919
41.6212246
40.6000303
39.6106645
38.6436539
37.6927021
36.7539122
35.824653
34.9027008
33.9859325
33.0722842
32.159783
31.2466113
30.331194
29.4122988
28.489139
27.5614676
26.629657
25.6947486
24.758457
23.8231167
55.8232157
53.003568
50.2557031
48.2708128
46.5843635
45.07379
43.7757878
42.6397119
41.5913781
40.5904356
39.6198809
38.6700945
37.7346984
36.8097381
35.8925254
34.9807613
34.0722184
33.1646943
32.2560429
31.3442453
30.4275147
29.5044209
28.574026
27.6360186
26.6908369
25.7397574
24.7849276
23.8293178
55.6853244
52.8686254
50.1292361
48.157203
46.4866357
44.9939445
43.7148608
42.5980073
41.5686969
40.5862001
39.633231
38.6999729
37.7799023
36.868938
35.9642598
35.0634156
34.1639925
33.2635598
32.359696
31.4500683
30.5325535
29.6053918
28.6673634
27.7179777
26.7576569
25.787888
24.8113043
23.8316561
55.5729042
52.7585847
50.0260135
48.0644028
46.4069208
44.9292545
43.6664046
42.56642
41.554201
40.5886825
39.6523049
38.7350378
37.8301802
36.9334802
36.041933
35.1528746
34.263635
33.371465
32.4735603
31.5671441
30.6496046
29.7186803
28.7726883
27.8107857
26.8332433
25.8416946
24.8393026
23.8307783
55.4820935
52.6697433
49.9428044
47.9898611
46.3434096
44.8786244
43.6299572
42.5450163
41.5483764
40.5986914
39.6781568
38.7765369
37.8869448
37.0049371
36.1272976
35.2511083
34.3733791
33.4909587
32.6005481
31.6987805
30.7823693
29.8483273
28.8942571
27.9187075
26.9215754
25.9045055
24.8712061
23.8275689
55.409707
52.5990264
49.8768589
47.9313018
46.2943585
44.8408426
43.6047971
42.5335006
41.5512822
40.616575
39.711372
38.8252576
37.9511702
37.0844833
36.2217623
35.3598095
34.4952687
33.6245159
32.7436463
31.84854
30.9350124
29.9990634
29.0372354
28.0470905
27.0277921
25.9807359
24.9101185
23.823269
55.353048
52.5438144
49.8257835
47.8866641
46.258089
44.8146228
43.5900104
42.531292
41.5626251
40.6422847
39.7521115
38.8815476
38.0233976
37.1728783
36.3263492
35.4803328
34.6310909
33.774473
32.9058656
32.020224
31.1122076
30.1764402
29.2079352
28.2027151
27.1586345
26.0763612
24.9603703
23.8196896
55.3097788
52.5018234
49.7874515
47.8540546
46.232979
44.7986263
43.5845325
42.5375761
41.5818111
40.6754158
39.8001329
38.9453277
38.1037228
37.2704221
36.4416238
35.6136087
34.7822711
33.9429135
33.0901358
32.2178062
31.3191421
30.3869502
29.4140917
28.3942503
27.3230629
26.1996128
25.0281275
23.8195259
55.2778315
52.4710225
49.7599396
47.8317096
46.2174525
44.7914744
43.5871762
42.5513408
41.6079777
40.7152272
39.8548124
39.0160885
38.1917591
37.376893
36.5676074
35.7600177
34.9497141
34.1314856
33.2991211
32.4452749
31.5614395
30.6380961
29.6651551
28.6328348
27.5331382
26.3620562
25.1223745
23.8267947
55.2553475
52.4495775
49.7414842
47.8179702
46.2099727
44.7917573
43.596653
42.5713982
41.6400116
40.7606709
39.9151518
39.0928676
38.2865961
37.491475
36.7036577
35.9192214
35.1335827
34.341133
33.534916
32.7063337
31.8449274
30.9383252
29.9725201
28.9327395
27.8052271
26.5803251
25.2568837
23.8483338
55.2406377
52.4358138
49.7304532
47.8112666
46.2090403
44.7980462
43.611585
42.5964023
41.676584
40.8104104
39.9797738
39.174237
38.3867582
37.6126736
36.8483302
36.0899556
35.3330095
34.5717153
33.7985825
33.0038879
32.175152
31.2967033
30.3495489
29.3119358
28.1611953
26.8778302
25.4521274
23.8955844
55.2321588
52.4281951
49.725332
47.8101143
46.2132005
44.808896
43.6305256
42.624887
41.716178
40.8628338
40.0469403
39.2583006
38.4901698
37.7382348
36.9992333
36.2697962
35.5457425
34.8215067
34.0894844
33.3392287
32.5564914
31.7221629
30.8113216
29.7928435
28.6304667
27.28737
25.7353671
23.9779571
55.2284937
52.4253076
49.7247155
47.8131161
46.2210438
44.8228693
43.6519964
42.6552981
41.7571164
40.9160967
40.1145844
39.3427101
38.5941454
37.8650916
37.1529033
36.4549247
35.7677525
35.0865823
34.4043864
33.7107972
32.9906043
32.2218115
31.3733541
30.4027903
29.255108
27.8649425
26.1633295
24.1219654
55.2283678
52.4258708
49.7273145
47.8189632
46.2312229
44.8385732
43.6745209
42.6860308
41.7976188
40.9681787
40.1803674
39.4247179
38.695426
37.9893653
37.3047393
36.6399471
35.992861
35.3601506
34.7363563
34.1124999
33.4739968
32.7975802
32.0470274
31.1678612
30.0826912
28.6876777
26.8509336
24.4666092
55.2306607
52.4287576
49.7319731
47.8264524
46.2424893
44.8546883
43.6966654
42.7154906
41.8358692
41.0169629
40.2417709
39.5012784
38.7902832
38.1064559
37.4490502
36.8178428
36.2124966
35.6319674
35.0736204
34.5317504
33.995055
33.4422866
32.8350068
32.1061387
31.1454371
29.7769154
27.7795242
24.9114759
55.2343945
52.4329863
49.7376777
47.834519
46.2537222
44.8700064
43.7170919
42.7421582
41.8700994
41.0603414
40.2962283
39.5692084
38.8747094
38.2112586
37.5792788
36.9801496
36.4157388
35.8880367
35.3985638
34.9472239
34.530009
34.1342785
33.7294192
33.2471452
32.5419239
31.2952424
28.9834059
24.4856311
55.2387484
52.437728
49.7435726
47.8422637
46.2639594
44.8834729
43.7346138
42.7646638
41.8986864
41.0963436
40.3412917
39.6254055
38.9447028
38.2985306
37.6884621
37.11751
36.5898894
36.1110079
35.6874307
35.32662
35.0360064
34.8205207
34.6768289
34.5783415
34.4363245
33.9811219
32.4377591
26.0415556
69.7412188
60.9327918
54.4950346
50.890659
48.214149
45.9813926
44.1730625
42.6668678
41.3394468
40.1267664
38.9962512
37.9264965
36.9026737
35.9146363
34.9551026
34.0185435
33.1006375
32.1979592
31.3077715
30.4278818
29.5565422
28.6923785
27.8343365
26.98164
26.1337564
25.2903668
24.4513384
23.6166979
61.9849833
58.480354
54.4594726
51.335355
48.7406625
46.4775863
44.5779063
42.9808113
41.5829382
40.3176578
39.1485848
38.0508805
37.0063365
36.0023282
35.0300654
34.0830953
33.1564994
32.246461
31.34998
30.4646776
29.5886688
28.7204752
27.8589625
27.0032918
26.1528804
25.3073685
24.4665886
23.6305368
58.7424116
57.2472621
54.2500701
51.3124859
48.8242697
46.6472
44.7572017
43.1346615
41.7115049
40.4264083
39.2414719
38.1312974
37.0770376
36.0652458
35.086527
34.1340474
33.2026238
32.2882498
31.3877943
30.4987909
29.619295
28.747789
27.8831145
27.0244211
26.1711241
25.3228699
24.4795035
23.6410379
57.1863927
56.1246237
53.6424552
51.005072
48.7099466
46.6726843
44.8564316
43.2600602
41.8424342
40.5541625
39.361468
38.2417908
37.1780661
36.1574898
35.1707823
34.2110743
33.2730826
32.3526675
31.4465658
30.5521977
29.6675301
28.7909813
27.9213532
27.0577776
26.1996726
25.3467044
24.4987528
23.6558757
56.0836182
55.1233841
52.9746588
50.6324741
48.5185735
46.6031063
44.8707321
43.3252938
41.9363221
40.6634328
39.4775052
38.3589273
37.2928763
36.2680136
35.2759254
34.3102656
33.3660584
32.4393189
31.5268421
30.626056
29.7349137
28.851817
27.9755596
27.1052813
26.2404277
25.380713
24.5260829
23.6766774
55.271506
54.3709831
52.4099082
50.2601491
48.2809394
46.4659082
44.8139267
43.3274907
41.9788645
40.7333008
39.5654898
38.4581084
37.3981624
36.3757764
35.38358
34.4159497
33.4684135
32.5373262
31.6197016
30.7131044
29.8155761
28.925582
28.0419726
27.1639504
26.2910387
25.4230486
24.5600429
23.702296
54.6576008
53.7903027
51.9311498
49.9054398
48.0308293
46.3009721
44.7202837
43.2904243
41.984291
40.7702229
39.6255941
38.5348294
37.4863215
36.4713679
35.4834942
34.5177272
33.5700711
32.6372285
31.7164605
30.8055078
29.9025406
29.0061288
28.1152201
27.2291209
26.3474757
25.47024
24.5976463
23.7301613
54.1772898
53.3282081
51.5299832
49.5881124
47.7931628
46.1321897
44.611117
43.2312918
41.9653755
40.7829813
39.6630847
38.5913499
37.5571703
36.552707
35.5721781
34.6111307
33.6659551
32.7336402
31.8116567
30.8978982
29.9906534
29.0885944
28.1907716
27.29661
26.4058988
25.5187719
24.6356765
23.7573271
53.7935218
52.9560182
51.1971952
49.3127487
47.5768565
45.9703139
44.4984319
43.1618084
41.9324018
40.780122
39.6847721
38.6328125
37.6143186
36.6220551
35.650745
34.6963251
33.7554747
32.8253927
31.903699
30.9883935
30.0778458
29.1708022
28.2663985
27.3641715
26.4640625
25.5664059
24.6719014
23.7815651
53.4827787
52.6531361
50.9209402
49.0767204
47.3848517
45.8213286
44.3899365
43.0901757
41.8931699
40.7686762
39.6968145
38.6644758
37.6621511
36.6829911
35.7220537
34.7755386
33.8403155
32.9137129
31.9934318
31.0775195
30.1643762
29.2527798
28.3419185
27.4314213
26.5213775
25.6123385
24.7052944
23.8016209
53.2289588
52.4048524
50.6914348
48.8763109
47.2177586
45.6883364
44.2902126
43.0217246
41.8531606
40.7539157
39.7041093
38.6907909
37.7046547
36.7390582
35.7892446
34.8515558
33.9229535
33.0008104
32.0828332
31.1670475
30.2518197
29.3359023
28.4184896
27.49927
26.5784686
25.6568652
24.7357808
23.8170233
53.0206602
52.2006046
50.5009518
48.7075127
47.0746085
45.5724273
44.2017527
42.959842
41.8161955
40.7397637
39.7104912
38.7154059
37.7452476
36.7934409
35.8552886
34.9271658
34.0060297
33.089209
32.1743313
31.2593177
30.3424216
29.4222942
28.498069
27.5694429
26.6367496
25.7010046
24.7639088
23.8277921
52.849525
52.0325334
50.3433083
48.5664898
46.9537315
45.4736012
44.1257884
42.9066174
41.7848832
40.7290828
39.7189038
38.7412441
37.7867807
36.8489006
35.9228664
35.0049919
34.0921387
33.1815013
32.2705357
31.3569607
30.438816
29.5145527
28.5831487
27.6442317
26.6981968
25.746291
24.790645
23.834225
52.7092237
51.8946202
50.2135353
48.4498085
46.8532274
45.3912455
44.0627221
42.8632138
41.7609099
40.7238842
39.7315409
38.7705905
37.8315791
36.9077831
35.9943492
35.0874509
34.183772
33.2802822
32.3741634
31.4628222
30.5439601
29.6156943
28.6767165
27.7264682
26.7653219
25.7947292
24.8173033
23.8367917
52.5948202
51.7821315
50.107583
48.3544453
46.7711549
45.3243937
44.0124046
42.8301331
41.7452655
40.7255018
39.7499695
38.8051716
37.881487
36.9720361
36.0717962
35.1767394
34.2832972
33.3881265
32.48803
31.5799704
30.6611585
29.7292044
28.7823292
27.8196137
26.841269
25.8488841
24.8455974
23.8361189
52.5023554
51.6912449
50.0220865
48.2777357
46.7056199
45.2718831
43.9743201
42.8074004
41.7384053
40.7347201
39.7752235
38.846216
37.9378996
37.0432177
36.1569476
35.2748131
34.3929359
33.5075769
32.6150471
31.7117179
30.7941214
29.8591367
28.9042599
27.9279506
26.9300302
25.9120848
24.877789
23.8330377
52.4285684
51.618793
49.9541918
48.2173114
46.6548054
45.2324427
43.9476991
42.7946834
41.7403614
40.7518667
39.8078707
38.8944963
38.0017809
37.1224928
36.2511988
35.3833556
34.5147284
33.6411094
32.7582052
31.8616342
30.9470273
30.010242
29.0476996
28.0568521
27.0367614
25.9887393
24.9169332
23.8286793
52.3707049
51.5620862
49.9014265
48.1710404
46.6169739
45.2047371
43.931588
42.7913711
41.750818
40.7768752
39.848058
38.9503526
38.0736633
37.2106098
36.3555662
35.5037218
34.6504638
33.7910635
32.9205226
32.0335364
31.124575
30.1881076
29.219004
28.2131421
27.168231
26.084809
24.9672687
23.8246485
52.3263842
51.5187891
49.8616059
48.1369757
46.5904582
45.1873899
43.9248919
42.7966255
41.769162
40.8093265
39.8955378
39.0136974
38.1536345
37.3078669
36.470619
35.6368437
34.8015697
33.9595296
33.1049452
32.2314263
31.3319955
30.3992875
29.4259842
28.4055675
27.3334498
26.2084972
25.0347844
23.8232447
52.2935075
51.4868336
49.8327651
48.1133157
46.5736496
45.1789947
43.9264004
42.809415
41.7945168
40.8484751
39.9496774
39.0840161
38.2413095
37.4140467
36.5963781
35.7831026
34.9689567
34.1481705
33.314164
32.459338
31.5749847
30.6513888
29.6782264
28.6454169
27.5445919
26.3713418
25.1281297
23.8276598
52.2701947
51.4643597
49.813112
48.0983754
46.5649891
45.1781224
43.9348072
42.8285393
41.8257646
40.8932672
40.0094769
39.1603518
38.3357818
37.5283325
36.7322022
35.9421651
35.1527987
34.3579515
33.5503142
32.7210464
31.8594867
30.9530346
29.9873651
28.947245
27.8182803
26.5900552
25.2606874
23.8434463
52.2547429
51.4496765
49.8009971
48.0905688
46.562963
45.1833296
43.9487268
42.8526493
41.8615771
40.9423687
40.0735686
39.2412794
38.4355758
37.6492313
36.8766505
36.1127743
35.3522432
34.5887626
33.8145169
33.0195652
32.191234
31.3135874
30.3671869
29.3295405
28.1768482
26.8881733
25.4522627
23.8802043
52.2456011
51.4412395
49.7948959
48.0884012
46.566106
45.1931684
43.9667139
42.8802857
41.9004446
40.9941786
40.1402174
39.3249054
38.5386196
37.774493
37.0273363
36.2925144
35.5650559
34.8389162
34.1062146
33.3563411
32.5748947
31.7424856
30.8335842
29.8158669
28.6509399
27.2988785
25.7276837
23.9401161
52.2413595
51.4376425
49.7934034
48.0904692
46.5730092
45.2062118
43.9873012
42.9099067
41.9407011
41.0468582
40.2073624
39.4088882
38.6422332
37.9010557
37.180801
36.4775751
35.7872252
35.1045284
34.4222663
33.7300175
33.0125354
32.247615
31.4034869
30.4360132
29.2864687
27.8831583
26.1463788
24.0418559
52.2407429
51.4376113
49.7952342
48.0954703
46.5823413
45.2210801
44.0090269
42.9399188
41.9805755
41.0983967
40.2726747
39.4904883
38.7431645
38.0250455
37.3324474
36.6625662
36.0125827
35.378841
34.7558344
34.1347378
33.5011934
32.8319784
32.0902839
31.2194036
30.136636
28.7287422
26.8439212
24.3621473
52.2426177
51.4400002
49.7992319
48.1022206
46.5928706
45.2364652
44.0304691
42.9687404
42.0182645
41.1466896
40.3336474
39.5666704
38.8376929
38.1418672
37.4765839
36.8404609
36.2325467
35.6516081
35.0951966
34.5581424
34.0299459
33.4901571
32.9003566
32.1903675
31.241166
29.8569092
27.7859608
24.7732907
52.246004
51.4438138
49.8043863
48.109673
46.6034886
45.2511708
44.0503034
42.9948665
42.0520142
41.1896429
40.3877265
39.634262
38.921819
38.2464186
37.6066467
37.0027729
36.4361451
35.9087445
35.4226213
34.9788566
34.5754265
34.2025799
33.8327292
33.3975559
32.7417524
31.4957022
29.0354599
23.9682107
52.2500847
51.4482273
49.8098506
48.1169396
46.6132447
45.2641551
44.0673574
43.016942
42.080216
41.2252997
40.4324771
39.6901726
38.9915493
38.3334588
37.71566
37.1401025
36.6105772
36.13268
35.7139141
35.3637627
35.0934604
34.9145819
34.8345904
34.8431574
34.8713245
34.629109
33.1942463
25.7216884
68.5151524
60.1212325
54.0907954
50.6952825
48.1425023
45.9836678
44.205592
42.704352
41.3706571
40.1473175
39.0054302
37.9255179
36.8934819
35.8992682
34.9353992
33.9960363
33.0765318
32.1731689
31.2829706
30.403557
29.5330387
28.6699361
27.8131165
26.9617451
26.1152445
25.2732606
24.4356322
23.6023622
60.808993
57.7115782
54.1271056
51.2191492
48.7443293
46.5543026
44.6779447
43.0744497
41.6604154
40.3770309
39.1907827
38.0784593
37.0223536
36.0095808
35.030869
34.0792903
33.1495065
32.2373536
31.3395597
30.4535411
29.5772597
28.709123
27.8479113
26.992721
26.1429193
25.2981069
24.4580838
23.622819
57.5892956
56.5153701
53.9947628
51.2949067
48.9292824
46.8235795
44.9454961
43.2979429
41.8414798
40.5254899
39.3139748
38.1822931
37.111575
36.0875346
35.0997942
34.1407288
33.2045501
32.2867863
31.3839589
30.4933475
29.6128227
28.7407303
27.8758095
27.0171319
26.1640523
25.3161681
24.4732841
23.6353792
56.0604834
55.4298721
53.4360664
51.0458128
48.8786274
46.9157447
45.1084806
43.4782356
42.0171784
40.6893093
39.4628742
38.3159097
37.2313083
36.1952133
35.1970314
34.228835
33.2845615
32.3594917
31.4499402
30.5530283
29.6665109
28.7886531
27.918143
27.0540258
26.1956521
25.3426335
24.4948037
23.6521814
54.9740346
54.4478583
52.7920637
50.7040235
48.7224294
46.8823573
45.1573193
43.5738127
42.1362545
40.8192414
39.596032
38.4474503
37.3585062
36.3166662
35.3120167
34.3369994
33.3857652
32.4536949
31.5371304
30.6331863
29.7395998
28.8546208
27.9769329
27.1055932
26.2399836
25.3797664
24.5248438
23.6753176
54.1684539
53.7036949
52.2386
50.3474607
48.5027527
46.7628269
45.1170041
43.5904837
42.1906269
40.8985209
39.691675
38.5531332
37.4695826
36.4298363
35.4249047
34.4478435
33.4932321
32.5567476
31.6349268
30.7250116
29.8248278
28.9326948
28.0473615
27.1679577
26.2939526
25.4251146
24.5614714
23.7032666
53.5560833
53.1258475
51.7639106
49.9988066
48.2599873
46.6053191
45.0304311
43.5597404
42.201173
40.9393235
39.7547452
38.6322611
37.5598633
36.5274755
35.526944
34.5519089
33.5973704
32.6593146
31.734501
30.8203317
29.9147545
29.0161917
28.1234923
27.2358954
26.3529984
25.474722
24.601272
23.7330932
53.0748635
52.6635736
51.3628646
49.6825131
48.0242934
46.4388031
44.9234967
43.5026423
42.1838575
40.9531566
39.7929065
38.6892256
37.6310709
36.6091976
35.6161213
34.6459738
33.6941131
32.7567895
31.8309544
30.9141499
30.0044322
29.1003196
28.2007609
27.3051129
26.4131191
25.5248822
24.6408271
23.7616522
52.6891871
52.2898884
51.028544
49.4059745
47.8073549
46.2765559
44.8105618
43.4330099
42.150728
40.9500399
39.8142478
38.7303178
37.6878778
36.678272
35.694515
34.7311221
33.783731
32.8487931
31.9234014
31.0051966
30.0923089
29.1833246
28.2772729
27.373619
26.4722561
25.5734869
24.6779901
23.7867682
52.3763026
51.9851073
50.7502072
49.1679008
47.6135606
46.1259941
44.700701
43.3602532
42.1105608
40.9377694
39.8255483
38.7613275
37.7351495
36.7387392
35.7654481
34.810057
33.8683947
32.9370409
32.0131684
31.0944628
30.1790808
29.2656367
28.3532078
27.4413475
26.530094
25.6199641
24.7119259
23.8073428
52.1204545
51.7349379
50.5185852
48.9652649
47.4443313
45.9910195
44.599215
43.2903126
42.0693146
40.9219719
39.8319705
38.786915
37.7770514
36.7943111
35.8322354
34.8857535
33.9507901
33.0239724
32.1024801
31.183977
30.2665853
29.3488916
28.4299757
27.509447
26.5874756
25.6648048
24.7427321
23.8230526
51.9103699
51.5289909
50.3261738
48.7943718
47.2990782
45.8730983
44.5089344
43.2268674
42.0310452
40.9067411
39.8374671
38.8108105
37.8170629
36.8482238
35.8978999
34.96106
34.0336302