/*--------------------------------*- C++ -*----------------------------------*\
| =========                 |                                                 |
| \\      /  F ield         | foam-extend: Open Source CFD                    |
|  \\    /   O peration     | Version:     4.1                                |
|   \\  /    A nd           | Web:         http://www.foam-extend.org         |
|    \\/     M anipulation  |                                                 |
\*---------------------------------------------------------------------------*/
FoamFile
{
    version     2.0;
    format      ascii;
    class       surfaceScalarField;
    location    "0.45";
    object      phi;
}
// * * * * * * * * * * * * * * * * * * * * * * * * * * * * * * * * * * * * * //

dimensions      [0 3 -1 0 0 0 0];

internalField   nonuniform List<scalar> 
102656
(
0.000395260995
5.30266747e-05
5.17123299e-05
0.000281609503
5.82613048e-05
5.5390187e-05
0.000200388035
4.23600261e-05
3.88614405e-05
0.000148889725
2.74479752e-05
2.40503344e-05
0.000117042488
1.73740716e-05
1.44731644e-05
9.68253117e-05
1.12259444e-05
8.99123088e-06
8.35604713e-05
7.39776274e-06
5.86707699e-06
7.46494721e-05
4.89479734e-06
4.01620129e-06
6.84808243e-05
3.24883312e-06
2.91981445e-06
6.40389811e-05
2.16970167e-06
2.27214147e-06
6.07135761e-05
1.45185546e-06
1.87354979e-06
5.8140119e-05
9.64339659e-07
1.609118e-06
5.60945951e-05
6.27333965e-07
1.41819071e-06
5.44351134e-05
3.90632485e-07
1.26885026e-06
5.30688108e-05
2.21998505e-07
1.14430535e-06
5.19321601e-05
1.00738519e-07
1.03591365e-06
5.09794209e-05
1.35094652e-08
9.39231326e-07
5.01762062e-05
-4.85685561e-08
8.51784962e-07
4.94956277e-05
-9.14918115e-08
7.72072125e-07
4.89157492e-05
-1.19228313e-07
6.99108514e-07
4.84181418e-05
-1.34541665e-07
6.32150809e-07
4.79870144e-05
-1.39485594e-07
5.70614638e-07
4.76086352e-05
-1.35666084e-07
5.14046875e-07
4.72709406e-05
-1.2440281e-07
4.62098799e-07
4.6963291e-05
-1.06858886e-07
4.14509877e-07
4.6676325e-05
-8.41271606e-08
3.71094396e-07
4.64018786e-05
-5.72799189e-08
3.31727326e-07
-2.7389336e-08
2.96329914e-07
4.61329391e-05
0.00046199892
2.77115921e-05
6.33161621e-05
0.000392853465
5.22457841e-05
7.51609738e-05
0.000323886604
5.01980046e-05
6.11288809e-05
0.00026675912
4.04821838e-05
4.40932736e-05
0.000223839389
3.0489764e-05
2.98040368e-05
0.000193124662
2.23545446e-05
1.95861258e-05
0.000171287423
1.62950777e-05
1.29399236e-05
0.000155544508
1.18568017e-05
8.78090985e-06
0.000143958958
8.61370188e-06
6.22068083e-06
0.000135219195
6.25797595e-06
4.65148915e-06
0.000128454228
4.54751615e-06
3.66930806e-06
0.00012309476
3.29756084e-06
3.02624819e-06
0.000118765393
2.37526713e-06
2.58143561e-06
0.000115213101
1.6870207e-06
2.25590529e-06
0.000112263043
1.16751497e-06
2.0045441e-06
0.00010979078
7.71794211e-07
1.80121068e-06
0.00010770472
4.69099321e-07
1.63047326e-06
0.000105934872
2.38339083e-07
1.48294313e-06
0.000104425847
6.48906357e-08
1.35264599e-06
0.000103132729
-6.16514323e-08
1.23554418e-06
0.00010201823
-1.48845443e-07
1.12880535e-06
0.000101050616
-2.0229948e-07
1.03043058e-06
0.000100202364
-2.26422178e-07
9.39010706e-07
9.94493263e-05
-2.24909282e-07
8.53546858e-07
9.87701796e-05
-2.01059374e-07
7.73349285e-07
9.81460756e-05
-1.57994162e-07
6.97972954e-07
9.75604268e-05
-9.87989474e-08
6.27169648e-07
-2.65960734e-08
5.6084694e-07
9.69987881e-05
0.000447769666
1.52547734e-05
6.46871519e-05
0.000388238231
3.58422793e-05
7.59349386e-05
0.000335580932
4.06676027e-05
6.21876989e-05
0.000291761031
3.76328725e-05
4.66692118e-05
0.00025707805
3.18672918e-05
3.33054517e-05
0.000230707729
2.56779157e-05
2.30469492e-05
0.000210912483
2.01534666e-05
1.59368564e-05
0.000195901348
1.5601388e-05
1.12665484e-05
0.000184287842
1.19733269e-05
8.25388079e-06
0.000175101701
9.1331759e-06
6.3109421e-06
0.00016768608
6.93215354e-06
5.03098438e-06
0.000161599521
5.23188256e-06
4.15223793e-06
0.00015653956
3.91602629e-06
3.51920387e-06
0.000152291958
2.89244482e-06
3.04217948e-06
0.000148699964
2.09096115e-06
2.66854953e-06
0.000145645401
1.45980278e-06
2.36655702e-06
0.00014303657
9.61626479e-07
2.11630584e-06
0.000140800416
5.69811909e-07
1.90468357e-06
0.00013887734
2.65404488e-07
1.72256488e-06
0.000137217559
3.48035329e-08
1.56332852e-06
0.000135778666
-1.31972955e-07
1.42202183e-06
0.000134524017
-2.42514716e-07
1.29486692e-06
0.000133421465
-3.028757e-07
1.17900693e-06
0.000132442484
-3.18222908e-07
1.07229638e-06
0.000131561597
-2.93319408e-07
9.73148154e-07
0.000130756029
-2.32849267e-07
8.80424819e-07
0.000130005501
-1.41624405e-07
7.93353988e-07
-2.46957172e-08
7.11456272e-07
0.000129292146
0.000440472507
9.95924424e-06
6.48230212e-05
0.000375873834
2.46436312e-05
7.57973199e-05
0.000324700615
3.07170857e-05
6.1123735e-05
0.000286197155
3.08574993e-05
4.52788319e-05
0.000257839437
2.8110359e-05
3.21146498e-05
0.000237173889
2.41831018e-05
2.21603612e-05
0.000221931091
2.00742023e-05
1.53220617e-05
0.000210342102
1.63077364e-05
1.08826404e-05
0.000201201511
1.30620109e-05
8.05190762e-06
0.000193743425
1.03490636e-05
6.24219872e-06
0.000187498703
8.12003384e-06
5.05684298e-06
0.000182181801
6.30617712e-06
4.2426092e-06
0.000177611676
4.83665146e-06
3.64950065e-06
0.00017366409
3.64713947e-06
3.19289281e-06
0.000170246247
2.68341171e-06
2.82539416e-06
0.000167283972
1.90205818e-06
2.52002104e-06
0.000164715194
1.26962469e-06
2.26078159e-06
0.000162486524
7.6100381e-07
2.03747948e-06
0.000160551288
3.57651547e-07
1.84299114e-06
0.000158868213
4.59471206e-08
1.67193217e-06
0.000157400449
-1.84229551e-07
1.52002278e-06
0.000156114826
-3.40660333e-07
1.38376953e-06
0.000154981273
-4.29648027e-07
1.26032661e-06
0.000153972382
-4.56720216e-07
1.14738898e-06
0.000153063128
-4.27189793e-07
1.04312488e-06
0.000152230711
-3.46551091e-07
9.46119617e-07
0.000151454503
-2.20739307e-07
8.55323349e-07
-5.62673187e-08
7.69999579e-07
0.000150716076
0.000437878042
7.06293473e-06
6.50182668e-05
0.00036845674
1.77999606e-05
7.62649715e-05
0.000314729666
2.34042249e-05
6.1039934e-05
0.000276413311
2.47886724e-05
4.43851809e-05
0.000250112241
2.36938509e-05
3.07175771e-05
0.000232367672
2.13272027e-05
2.06004683e-05
0.000220182625
1.84539503e-05
1.38052981e-05
0.00021141582
1.55586755e-05
9.51586646e-06
0.00020471754
1.28836339e-05
6.87665775e-06
0.000199291832
1.05157097e-05
5.25906251e-06
0.000194695492
8.46835844e-06
4.24801685e-06
0.000190693973
6.72321224e-06
3.58448486e-06
0.000187164587
5.24863523e-06
3.11740339e-06
0.000184039011
4.00937792e-06
2.76333883e-06
0.000181273078
2.97182434e-06
2.47752177e-06
0.000178832347
2.10654537e-06
2.23624434e-06
0.000176685913
1.3892011e-06
2.02685864e-06
0.000174804184
8.00476028e-07
1.84225764e-06
0.000173158346
3.25494957e-07
1.67799559e-06
0.0001717204
-4.69851916e-08
1.53087936e-06
0.000170463317
-3.2550217e-07
1.39835599e-06
0.000169361143
-5.16732558e-07
1.27824608e-06
0.000168389031
-6.26200236e-07
1.16866457e-06
0.000167523334
-6.58991715e-07
1.06796976e-06
0.000166741694
-6.20317036e-07
9.74766541e-07
0.00016602318
-5.15942388e-07
8.87906032e-07
0.000165348453
-3.52491101e-07
8.06479156e-07
-1.37602619e-07
7.29803105e-07
0.000164699985
0.000436606103
5.27600117e-06
6.51808304e-05
0.000364323698
1.34340154e-05
7.66483487e-05
0.000308254175
1.82411945e-05
6.12325522e-05
0.00026885345
2.00670227e-05
4.4122374e-05
0.000242610175
1.98819412e-05
3.0055185e-05
0.000225728313
1.85107396e-05
1.96983243e-05
0.000214858906
1.65319573e-05
1.27914008e-05
0.000207591465
1.43456842e-05
8.48043328e-06
0.000202405918
1.21894563e-05
5.8797247e-06
0.00019840998
1.01791251e-05
4.33252396e-06
0.000195112442
8.36161371e-06
3.40428397e-06
0.000192261004
6.74886614e-06
2.82578507e-06
0.000189733678
5.33523474e-06
2.44072729e-06
0.00018747343
4.10689894e-06
2.1627277e-06
0.000185452447
3.04725662e-06
1.94555117e-06
0.000183653995
2.13992059e-06
1.76507744e-06
0.000182064028
1.37025996e-06
1.60890846e-06
0.000180667879
7.26052777e-07
1.47057207e-06
0.000179449329
1.97585329e-07
1.34645984e-06
0.000178390686
-2.22623658e-07
1.23428129e-06
0.000177473128
-5.40313614e-07
1.13236975e-06
0.000176677029
-7.5999394e-07
1.0393602e-06
0.000175982363
-8.85589354e-07
9.54054832e-07
0.000175369057
-9.21061593e-07
8.75376414e-07
0.000174817329
-8.70961051e-07
8.0237223e-07
0.000174308056
-7.4089008e-07
7.34220556e-07
0.000173823169
-5.3784201e-07
6.70237466e-07
-2.70382054e-07
6.09879304e-07
0.00017334607
0.000435884269
4.09254573e-06
6.5299186e-05
0.000361911098
1.04684481e-05
7.69387371e-05
0.000304147445
1.4507559e-05
6.14972886e-05
0.000263618714
1.64107215e-05
4.41850315e-05
0.000236884535
1.67264416e-05
2.98896789e-05
0.000220033421
1.59994225e-05
1.93624309e-05
0.000209562026
1.46584102e-05
1.23449424e-05
0.000202917834
1.30205922e-05
7.96928514e-06
0.000198473157
1.12950911e-05
5.33904345e-06
0.00019526343
9.6029113e-06
3.78594164e-06
0.000192751532
8.00768314e-06
2.86582884e-06
0.000190656801
6.53957998e-06
2.30401879e-06
0.000188840884
5.20992213e-06
1.94122937e-06
0.000187239002
4.01982725e-06
1.68895412e-06
0.000185821606
2.96535871e-06
1.49929444e-06
0.000184574055
2.04056901e-06
1.34690247e-06
0.000183486529
1.23926573e-06
1.21852055e-06
0.000182549499
5.55973421e-07
1.10710874e-06
0.000181751985
-1.36248261e-08
1.00872397e-06
0.000181081126
-4.72723641e-07
9.20958181e-07
0.00018052223
-8.23547728e-07
8.42130262e-07
0.000180058991
-1.06772564e-06
7.70969714e-07
0.000179673884
-1.20688684e-06
7.06404663e-07
0.000179348553
-1.24323275e-06
6.47501537e-07
0.00017906426
-1.18010889e-06
5.93441412e-07
0.000178802384
-1.02252366e-06
5.43509836e-07
0.000178544995
-7.77546864e-07
4.97093857e-07
-4.54527425e-07
4.53680589e-07
0.00017827546
0.000435447924
3.2538347e-06
6.53907866e-05
0.000360404345
8.34255387e-06
7.71694728e-05
0.000301440989
1.17181193e-05
6.1752796e-05
0.000259977524
1.35264229e-05
4.43477632e-05
0.000232684223
1.40952112e-05
2.99245316e-05
0.000215608381
1.377973e-05
1.92955347e-05
0.000205167093
1.28895942e-05
1.22101048e-05
0.000198728913
1.1669118e-05
7.78965497e-06
0.0001946017
1.02923369e-05
5.12996857e-06
0.000191775043
8.87244341e-06
3.55712558e-06
0.000189681322
7.47854229e-06
2.6228625e-06
0.000188019451
6.15075251e-06
2.05069889e-06
0.000186637182
4.91120555e-06
1.68098591e-06
0.000185460561
3.77135069e-06
1.42509812e-06
0.000184454492
2.73655704e-06
1.2348702e-06
0.000183601496
1.80899433e-06
1.08457025e-06
0.000182890807
9.89445397e-07
9.60508599e-07
0.000182313157
2.78410986e-07
8.55211878e-07
0.000181858521
-3.23335546e-07
7.64346593e-07
0.000181515172
-8.14558728e-07
6.8518303e-07
0.000181269388
-1.19356908e-06
6.15805432e-07
0.000181105553
-1.45865006e-06
5.54758582e-07
0.000181006377
-1.60855555e-06
5.00844667e-07
0.000180953226
-1.6431283e-06
4.5304684e-07
0.000180926597
-1.56396426e-06
4.10484808e-07
0.000180906723
-1.37504091e-06
3.72391222e-07
0.000180874305
-1.08322263e-06
3.38093567e-07
-6.98550059e-07
3.07002234e-07
0.000180811326
0.00043516294
2.62895133e-06
6.54619431e-05
0.00035940635
6.75097589e-06
7.73481676e-05
0.000299590004
9.56933491e-06
6.19651309e-05
0.000257392304
1.12077642e-05
4.45163587e-05
0.000229589107
1.18773061e-05
3.00211024e-05
0.000212224326
1.1811553e-05
1.93329593e-05
0.00020167398
1.12305601e-05
1.2209381e-05
0.00019525963
1.03187871e-05
7.76468117e-06
0.000191247471
9.21618072e-06
5.08831581e-06
0.000188595674
8.02195764e-06
3.50228421e-06
0.000186715236
6.80325246e-06
2.55572778e-06
0.000185290806
5.60390095e-06
1.97128206e-06
0.000184160377
4.45203926e-06
1.58959459e-06
0.000183243284
3.36580616e-06
1.32263816e-06
0.000182499955
2.35718229e-06
1.12270326e-06
0.000181910108
1.43453525e-06
9.6430547e-07
0.000181461381
6.04335012e-07
8.33836733e-07
0.000181143721
-1.27719901e-07
7.23789831e-07
0.000180946747
-7.56115627e-07
6.29753164e-07
0.000180858494
-1.27515021e-06
5.48844807e-07
0.000180864913
-1.67902949e-06
4.79040929e-07
0.000180949729
-1.96223671e-06
4.18770146e-07
0.000181094513
-2.12008318e-06
3.6674349e-07
0.000181278956
-2.14943938e-06
3.21868471e-07
0.000181481362
-2.04956757e-06
2.83197522e-07
0.000181679366
-1.82294774e-06
2.49903623e-07
0.000181850857
-1.47595724e-06
2.21244252e-07
-1.01928525e-06
1.96536242e-07
0.000181975056
0.000434966461
2.14559472e-06
6.55168951e-05
0.000358715646
5.51596535e-06
7.7485826e-05
0.000298282434
7.86768667e-06
6.21348604e-05
0.000255514295
9.31027201e-06
4.46656317e-05
0.000227273841
9.98955672e-06
3.01282044e-05
0.000209619405
1.00623811e-05
1.94036089e-05
0.000198908804
9.68437389e-06
1.22567884e-05
0.000192436134
8.99305894e-06
7.79839805e-06
0.000188440371
8.09853702e-06
5.11340771e-06
0.000185857404
7.08430851e-06
3.52061658e-06
0.000184082147
6.01140639e-06
2.56710322e-06
0.000182788218
4.92313097e-06
1.97469851e-06
0.000181806089
3.84998392e-06
1.58418481e-06
0.000181050001
2.81387181e-06
1.30802155e-06
0.00018047707
1.83114374e-06
1.09896885e-06
0.000180064993
9.14722977e-07
9.31888545e-07
0.000179800287
7.56438191e-08
7.93397088e-07
0.00017967235
-6.75932838e-07
6.76149191e-07
0.000179670474
-1.33000571e-06
5.75765996e-07
0.000179782352
-1.87643953e-06
4.89410184e-07
0.000179993326
-2.30506956e-06
4.15066718e-07
0.000180286
-2.60607653e-06
3.5116488e-07
0.000180640164
-2.77067373e-06
2.96427482e-07
0.00018103298
-2.79202908e-06
2.49773291e-07
0.000181439502
-2.66634519e-06
2.10256353e-07
0.000181833512
-2.39398634e-06
1.77028686e-07
0.000182188707
-1.98047933e-06
1.49328147e-07
-1.43718301e-06
1.26463673e-07
0.000182480142
0.000434825771
1.76035856e-06
6.55594657e-05
0.000358219833
4.52942776e-06
7.75924761e-05
0.000297330403
6.48805784e-06
6.22690596e-05
0.000254117864
7.73266768e-06
4.47901441e-05
0.000225511357
8.3694892e-06
3.02265746e-05
0.000207589102
8.50648399e-06
1.94781537e-05
0.000196703581
8.25396564e-06
1.23159294e-05
0.000190134054
7.71372041e-06
7.84886603e-06
0.000186102519
6.97111291e-06
5.1589599e-06
0.00018352963
6.09456049e-06
3.56263658e-06
0.000181798419
5.13721925e-06
2.60539826e-06
0.000180573858
4.13930088e-06
2.00839073e-06
0.00017968032
3.13114071e-06
1.61238116e-06
0.000179027897
2.13619174e-06
1.33010222e-06
0.000178571069
1.17335436e-06
1.11461764e-06
0.000178286047
2.58715195e-07
9.41029038e-07
0.000178158692
-5.93155305e-07
7.96153027e-07
0.000178178221
-1.36819948e-06
6.72737297e-07
0.000178333949
-2.05220954e-06
5.66475518e-07
0.000178613485
-2.63058649e-06
4.7461083e-07
0.000179001655
-3.08842235e-06
3.95182614e-07
0.000179479861
-3.41096409e-06
3.26682063e-07
0.000180025774
-3.5844601e-06
2.67873533e-07
0.000180613388
-3.59736273e-06
2.17720207e-07
0.000181213508
-3.44180385e-06
1.75338146e-07
0.00018179476
-3.1151866e-06
1.39949053e-07
0.000182325105
-2.62166858e-06
1.1084493e-07
-1.9732407e-06
8.73551886e-08
0.000182773808
0.000434721666
1.44600851e-06
6.55926846e-05
0.000357852197
3.72313469e-06
7.76757626e-05
0.000296617356
5.34788727e-06
6.23750133e-05
0.00025305517
6.40339746e-06
4.48914567e-05
0.000224144351
6.96946982e-06
3.03108393e-05
0.000205982617
7.12203327e-06
1.95461856e-05
0.000194923714
6.93969852e-06
1.23731708e-05
0.000188239931
6.49749177e-06
7.90001108e-06
0.000184143379
5.86087827e-06
5.20678705e-06
0.000181544888
5.08481862e-06
3.6082332e-06
0.000179819211
4.21420283e-06
2.64869267e-06
0.000178624914
3.28481034e-06
2.04878747e-06
0.000177781654
2.3251703e-06
1.64922949e-06
0.000177196271
1.35867273e-06
1.36290165e-06
0.000176821235
4.05344623e-07
1.14304525e-06
0.000176631774
-5.1675506e-07
9.64931183e-07
0.000176613524
-1.39036169e-06
8.15456395e-07
0.000176755996
-2.1980657e-06
6.87394032e-07
0.000177048976
-2.92171307e-06
5.76522484e-07
0.00017748037
-3.54210535e-06
4.80125403e-07
0.00017803477
-4.03909736e-06
3.96274544e-07
0.000178692453
-4.39215411e-06
3.23507222e-07
0.000179428743
-4.58140782e-06
2.60657732e-07
0.00018021383
-4.58922447e-06
2.06775441e-07
0.000181013176
-4.4022174e-06
1.61067496e-07
0.000181788668
-4.01352869e-06
1.2284994e-07
0.000182500568
-3.4250709e-06
9.15027877e-08
-2.6492915e-06
6.64225433e-08
0.000183110197
0.000434642309
1.18482246e-06
6.56188776e-05
0.000357571466
3.05244643e-06
7.77415327e-05
0.000296068766
4.39137635e-06
6.24592115e-05
0.000252227343
5.27136782e-06
4.49734538e-05
0.00022306267
5.75297092e-06
3.03811735e-05
0.000204689441
5.89024176e-06
1.96050205e-05
0.000193465582
5.73943597e-06
1.24241216e-05
0.000186661031
5.3556632e-06
7.94637955e-06
0.000182482665
4.78861194e-06
5.25063236e-06
0.000179835421
4.0816546e-06
3.65040791e-06
0.000178088705
3.2717305e-06
2.68918749e-06
0.000176896717
2.38959939e-06
2.08719831e-06
0.000176075819
1.46096917e-06
1.68509896e-06
0.000175530612
5.08017195e-07
1.39586248e-06
0.000175212329
-4.49243739e-07
1.17287164e-06
0.000175095859
-1.39175694e-06
9.91471186e-07
0.000175167279
-2.30033362e-06
8.38551569e-07
0.000175417035
-3.1547719e-06
7.06950395e-07
0.00017583603
-3.93316549e-06
5.92456549e-07
0.000176413104
-4.61153701e-06
4.92357928e-07
0.000177133152
-5.16389667e-06
4.04750865e-07
0.000177975633
-5.5628502e-06
3.28215169e-07
0.000178913451
-5.78087274e-06
2.61647467e-07
0.000179912366
-5.79232525e-06
2.04185277e-07
0.000180931195
-5.5761911e-06
1.55144957e-07
0.000181923052
-5.11935334e-06
1.13968081e-07
0.000182837827
-4.42001058e-06
8.01646652e-08
-3.49058373e-06
5.32459113e-08
0.000183625874
0.000434580118
9.64891421e-07
6.56398141e-05
0.000357351096
2.48725878e-06
7.77942108e-05
0.000295635563
3.58000241e-06
6.25269079e-05
0.000251567026
4.29976393e-06
4.50401429e-05
0.000222188453
4.69204533e-06
3.04394995e-05
0.00020362855
4.79525566e-06
1.96548892e-05
0.000192250333
4.64961056e-06
1.24680426e-05
0.000185323912
4.29534529e-06
7.98673818e-06
0.000181053871
3.76967197e-06
5.28898051e-06
0.000178341968
3.10614115e-06
3.68741606e-06
0.00017655448
2.33435257e-06
2.72486582e-06
0.000175342965
1.47986455e-06
2.12124918e-06
0.000174521822
5.64936204e-07
1.71717556e-06
0.000173994463
-3.90335322e-07
1.4257113e-06
0.000173711781
-1.36687375e-06
1.20031176e-06
0.00017364922
-2.34549817e-06
1.01630192e-06
0.000173794153
-3.3058982e-06
8.60631669e-07
0.000174138876
-4.22563428e-06
7.26139103e-07
0.000174676417
-5.07930024e-06
6.08593958e-07
0.000175397578
-5.83797325e-06
5.05274681e-07
0.000176288513
-6.46911702e-06
4.14285608e-07
0.00017732857
-6.93714329e-06
3.34236096e-07
0.000178488466
-7.20485274e-06
2.6408372e-07
0.00017972903
-7.23595091e-06
2.03061324e-07
0.000181000936
-6.99871863e-06
1.50621727e-07
0.000182245905
-6.47069986e-06
1.0637765e-07
0.000183399784
-5.64391685e-06
7.002758e-08
-4.52967524e-06
4.12578584e-08
0.000184397618
0.00043453007
7.77997385e-07
6.56568249e-05
0.000357173467
2.00675922e-06
7.78371047e-05
0.000295284636
2.88666634e-06
6.25821685e-05
0.000251027591
3.46182024e-06
4.50949897e-05
0.00022146617
3.76538191e-06
3.04880847e-05
0.000202740347
3.82404671e-06
1.96970326e-05
0.000191218145
3.66623729e-06
1.25055744e-05
0.000184171102
3.32094363e-06
8.02144471e-06
0.000179803248
2.81546069e-06
5.32206407e-06
0.000177014939
2.17503514e-06
3.71941505e-06
0.000175170928
1.42256688e-06
2.75579585e-06
0.000173921491
5.78430542e-07
2.15087164e-06
0.000173080171
-3.38988961e-07
1.74524408e-06
0.000172550196
-1.31238564e-06
1.45202582e-06
0.000172283131
-2.32444468e-06
1.22463545e-06
0.000172255947
-3.35677471e-06
1.03845994e-06
0.000172458386
-4.38879878e-06
8.80461586e-07
0.000172885853
-5.39654233e-06
7.43441197e-07
0.000173534922
-6.35150813e-06
6.23138097e-07
0.000174399919
-7.21977637e-06
5.16806567e-07
0.000175469818
-7.96155419e-06
4.22538026e-07
0.000176725213
-8.53149648e-06
3.3895817e-07
0.000178135435
-8.88016187e-06
2.65087145e-07
0.000179656205
-8.95699487e-06
2.00273246e-07
0.000181228467
-8.71512686e-06
1.44146609e-07
0.000182779219
-8.11801067e-06
9.65592678e-08
0.00018422518
-7.14736881e-06
5.74913303e-08
-5.8111575e-06
2.6907011e-08
0.000185479755
0.000434488747
6.18349555e-07
6.56709016e-05
0.000357026588
1.59625176e-06
7.78726688e-05
0.000294993198
2.2919813e-06
6.26280765e-05
0.000250576316
2.73791295e-06
4.51407901e-05
0.000220855894
2.95679327e-06
3.05290108e-05
0.000201980865
2.96619187e-06
1.97328847e-05
0.000190323738
2.78561017e-06
1.25377534e-05
0.000183157953
2.43538467e-06
8.05134301e-06
0.000178687933
1.93483438e-06
5.35064635e-06
0.000175813725
1.30211353e-06
3.74712859e-06
0.00017389963
5.54005776e-07
2.78265669e-06
0.000172595577
-2.94242067e-07
2.1767253e-06
0.000171715176
-1.22849492e-06
1.76990604e-06
0.000171162412
-2.23485086e-06
1.47522955e-06
0.000170890417
-3.29862382e-06
1.24617352e-06
0.000170878714
-4.4032352e-06
1.05816287e-06
0.0001711207
-5.52889768e-06
8.98113102e-07
0.000171616454
-6.65108361e-06
7.58787048e-07
0.000172368006
-7.73892899e-06
6.3586881e-07
0.000173375431
-8.75375903e-06
5.26557383e-07
0.000174632946
-9.64798326e-06
4.28913708e-07
0.000176124713
-1.03648321e-05
3.41568534e-07
0.00017782044
-1.08394911e-05
2.63603031e-07
0.00017967128
-1.10023404e-05
1.94504973e-07
0.000181606994
-1.07849835e-05
1.34143258e-07
0.000183535727
-1.01294612e-05
8.2717676e-08
0.000185348
-9.00028863e-06
4.06468651e-08
-7.39767883e-06
8.35024284e-09
0.000186926171
0.000434453784
4.81789018e-07
6.56827776e-05
0.000356902159
1.24516382e-06
7.79027149e-05
0.000294745337
1.78186816e-06
6.26669361e-05
0.000250190003
2.11353829e-06
4.51797098e-05
0.000220328779
2.25401607e-06
3.05640016e-05
0.000201317679
2.21354225e-06
1.976375e-05
0.000189532997
2.00467851e-06
1.25656127e-05
0.000182250096
1.64096082e-06
8.07732467e-06
0.000177674207
1.13517073e-06
5.3755526e-06
0.000174705659
4.99320309e-07
3.77134051e-06
0.000172708881
-2.55464845e-07
2.80624858e-06
0.000171334087
-1.11905599e-06
2.19960761e-06
0.000170395658
-2.08187694e-06
1.79181042e-06
0.000169799001
-3.13411966e-06
1.49592531e-06
0.000169499595
-4.26471249e-06
1.26549436e-06
0.000169480544
-5.46008129e-06
1.0758964e-06
0.00016974028
-6.70264319e-06
9.14010144e-07
0.000170285419
-7.96874484e-06
7.72521233e-07
0.000171125878
-9.22641542e-06
6.4702745e-07
0.000172270534
-1.04330629e-05
5.34648219e-07
0.000173722407
-1.15332404e-05
4.33383913e-07
0.000175472993
-1.24572635e-05
3.41846167e-07
0.000177495714
-1.31213839e-05
2.59171241e-07
0.000179739087
-1.34307294e-05
1.85016692e-07
0.000182120887
-1.32863638e-05
1.19580192e-07
0.000184525524
-1.259768e-05
6.35824339e-08
0.000186807479
-1.13003906e-05
1.81462571e-08
-9.37851762e-06
-1.55628951e-08
0.000188803881
0.000434423527
3.65272361e-07
6.56929908e-05
0.000356794378
9.45745578e-07
7.79285692e-05
0.000294529864
1.34593667e-06
6.2700447e-05
0.000249852159
1.57786155e-06
4.52133822e-05
0.00021986402
1.64774583e-06
3.05944094e-05
0.000200727024
1.55983562e-06
1.97907027e-05
0.000188820503
1.32116307e-06
1.25900363e-05
0.000181421498
9.39799821e-07
8.10016516e-06
0.000176736099
4.23076603e-07
5.39749291e-06
0.000173665074
-2.22441347e-07
3.79278582e-06
0.000171573234
-9.90949654e-07
2.82732468e-06
0.00017011146
-1.87739303e-06
2.22011059e-06
0.000169095201
-2.87712694e-06
1.81150872e-06
0.000168431636
-3.98522433e-06
1.51466957e-06
0.000168079192
-5.19536259e-06
1.28309339e-06
0.000168025515
-6.49852817e-06
1.0921237e-06
0.000168275453
-7.88113875e-06
9.28557137e-07
0.000168844146
-9.32241518e-06
7.8497814e-07
0.000169752362
-1.07914994e-05
6.5686702e-07
0.000171021811
-1.22437319e-05
5.41220094e-07
0.000172669375
-1.36167337e-05
4.35930216e-07
0.000174699724
-1.48271634e-05
3.39551131e-07
0.000177095871
-1.57687909e-05
2.51260285e-07
0.000179808166
-1.63139478e-05
1.70923797e-07
0.000182743335
-1.63207346e-05
9.92015898e-08
0.000185756834
-1.56487891e-05
3.76098212e-08
0.000188653594
-1.41855498e-05
-1.16014475e-08
-1.18826679e-05
-4.59745885e-08
0.000191203719
0.000434396822
2.66521805e-07
6.57019301e-05
0.000356699193
6.92185772e-07
7.79511902e-05
0.000294338932
9.76356379e-07
6.27298427e-05
0.000249551139
1.12264688e-06
4.52430085e-05
0.000219446791
1.13084225e-06
3.06212521e-05
0.00020019179
1.00026409e-06
1.98145722e-05
0.000188167767
7.33466971e-07
1.26117184e-05
0.000180653031
3.34070443e-07
8.12046506e-06
0.000175854301
-1.95289292e-07
5.4170959e-06
0.000172672664
-8.52923358e-07
3.81211866e-06
0.000170473332
-1.63797247e-06
2.84635346e-06
0.000168907784
-2.55050005e-06
2.23865525e-06
0.000167792461
-3.59126318e-06
1.8294588e-06
0.000167036402
-4.76103212e-06
1.53186648e-06
0.000166601253
-6.05955768e-06
1.2993431e-06
0.000166479783
-7.48421753e-06
1.1071593e-06
0.00016668438
-9.02774564e-06
9.42010447e-07
0.0001672409
-1.06752786e-05
7.96343117e-07
0.000168184328
-1.2400397e-05
6.65469155e-07
0.000169554129
-1.41597314e-05
5.46199013e-07
0.000171388003
-1.58868564e-05
4.3624941e-07
0.000173712552
-1.74857665e-05
3.34054492e-07
0.000176530196
-1.88252411e-05
2.38805994e-07
0.000179802133
-1.97365192e-05
1.50634902e-07
0.000183428849
-2.00183326e-05
7.08811269e-08
0.000187232678
-1.94549172e-05
2.298502e-09
0.000190950885
-1.78527605e-05
-5.09967569e-08
-1.51000894e-05
-8.42105151e-08
0.000194252517
0.000434372874
1.83777637e-07
6.57098709e-05
0.00035661382
4.79984699e-07
7.79712568e-05
0.000294167144
6.67037308e-07
6.27559963e-05
0.00024927891
7.41437408e-07
4.52694444e-05
0.000219066834
6.97655267e-07
3.06452631e-05
0.000199700117
5.31017799e-07
1.98359627e-05
0.000187561952
2.4047904e-07
1.26311535e-05
0.000179931422
-1.74152304e-07
8.1387522e-06
0.000175015455
-7.14237043e-07
5.434914e-06
0.000171715185
-1.38233227e-06
3.82967867e-06
0.000169395872
-2.18227738e-06
2.86361761e-06
0.000167709121
-3.11934508e-06
2.25559511e-06
0.000166471969
-4.20007683e-06
1.84596514e-06
0.000165594946
-5.43179144e-06
1.54778231e-06
0.000165042676
-6.82173965e-06
1.31445189e-06
0.000164813045
-8.37574174e-06
1.12115528e-06
0.000164926739
-1.00958886e-05
9.54448537e-07
0.000165422116
-1.19772417e-05
8.06586109e-07
0.000166351821
-1.40027385e-05
6.72637449e-07
0.000167778978
-1.6136021e-05
5.49132866e-07
0.000169771081
-1.83124644e-05
4.33505296e-07
0.000172389259
-2.04279105e-05
3.23965752e-07
0.000175671082
-2.23267291e-05
2.19665118e-07
0.000179605367
-2.37918826e-05
1.21077506e-07
0.000184099177
-2.45427208e-05
3.05781927e-08
0.000188942529
-2.42511638e-05
-4.71062483e-08
0.000193782207
-2.25880866e-05
-1.04352547e-07
-1.93182127e-05
-1.31774045e-07
0.000198132103
0.000434351162
1.15614603e-07
6.57170018e-05
0.000356536425
3.05489872e-07
7.79892336e-05
0.000294010949
4.13012576e-07
6.27795016e-05
0.000249030212
4.28904532e-07
4.52932705e-05
0.00021871749
3.43436388e-07
3.06669407e-05
0.000199244357
1.48880527e-07
1.98552702e-05
0.000186994957
-1.58900269e-07
1.26487797e-05
0.000179248543
-5.83224866e-07
8.15548668e-06
0.000174211768
-1.12863022e-06
5.45116768e-06
0.0001707853
-1.801488e-06
3.84562295e-06
0.000168333742
-2.61009697e-06
2.87937689e-06
0.000166508097
-3.56484986e-06
2.27114867e-06
0.000165125154
-4.67833811e-06
1.86120422e-06
0.000164095989
-5.96516862e-06
1.56254165e-06
0.000163387213
-7.44145288e-06
1.32848983e-06
0.000163001112
-9.12374572e-06
1.13410504e-06
0.000162966487
-1.10270152e-05
9.65751582e-07
0.000163334992
-1.31611596e-05
8.15412511e-07
0.000164179815
-1.55253598e-05
6.77798985e-07
0.000165594104
-1.80993174e-05
5.49008565e-07
0.000167686126
-2.08304952e-05
4.26008318e-07
0.000170568558
-2.36169462e-05
3.06604175e-07
0.000174338305
-2.62862763e-05
1.89799726e-07
0.000179041254
-2.85713359e-05
7.65033498e-08
0.000184619492
-3.0091531e-05
-2.94290795e-08
0.000190844987
-3.03565442e-05
-1.20115768e-07
0.000197250548
-2.88123307e-05
-1.81318412e-07
-2.49847901e-05
-1.9462019e-07
0.000203111744
0.000434331376
6.07928045e-08
6.57234469e-05
0.000356465903
1.65541602e-07
7.80054222e-05
0.000293868222
2.09960123e-07
6.28007339e-05
0.000248801962
1.80317937e-07
4.53148476e-05
0.000218394921
6.38970795e-08
3.06865801e-05
0.000198820384
-1.49429819e-07
1.98728478e-05
0.000186462779
-4.66264443e-07
1.26649696e-05
0.000178600921
-8.92146031e-07
8.17077887e-06
0.000173440664
-1.43427627e-06
5.46590239e-06
0.000169881438
-2.10238888e-06
3.86012647e-06
0.000167286311
-2.90875177e-06
2.89378041e-06
0.000165304634
-3.86859742e-06
2.28542392e-06
0.000163751627
-5.00057321e-06
1.87524203e-06
0.000162537308
-6.32700989e-06
1.57616071e-06
0.000161628429
-7.87397745e-06
1.34140267e-06
0.000161029722
-9.67088895e-06
1.14585081e-06
0.000160776296
-1.17491868e-05
9.75597459e-07
0.000160932348
-1.41394369e-05
8.22225949e-07
0.000161592905
-1.68658139e-05
6.79898093e-07
0.000162886174
-1.99365986e-05
5.44012138e-07
0.000164973053
-2.33281029e-05
4.10728459e-07
0.000168040189
-2.69611839e-05
2.77101813e-07
0.000172278988
-3.06668708e-05
1.41794478e-07
0.000177841306
-3.41400439e-05
6.38871277e-09
0.000184762145
-3.68898912e-05
-1.2248036e-07
0.000192840456
-3.82033059e-05
-2.3155146e-07
0.000201483934
-3.71612187e-05
-2.9459265e-07
-3.28299167e-05
-2.80530474e-07
0.000209609589
0.000434313415
1.80676951e-08
6.57293106e-05
0.000356401741
5.72076767e-08
7.80200089e-05
0.00029373794
5.3872974e-08
6.28198896e-05
0.00024859276
-8.8552202e-09
4.53343529e-05
0.000218097688
-1.4550066e-07
3.07044707e-05
0.000198427043
-3.677616e-07
1.98889769e-05
0.000185964939
-6.83890801e-07
1.26797304e-05
0.000177989277
-1.10106494e-06
8.18458031e-06
0.000172704424
-1.62864217e-06
5.47921843e-06
0.000169007727
-2.27897386e-06
3.87328104e-06
0.000166259713
-3.06762234e-06
2.90688442e-06
0.000164106738
-4.01406901e-06
2.29844605e-06
0.000162360689
-5.14258751e-06
1.88806277e-06
0.000160928224
-6.48311278e-06
1.58856766e-06
0.000159773329
-8.07211902e-06
1.35303744e-06
0.000158899643
-9.9533128e-06
1.15610975e-06
0.000158344678
-1.21777017e-05
9.83480111e-07
0.000158181424
-1.48023061e-05
8.26123769e-07
0.000158524561
-1.78862729e-05
6.77322331e-07
0.000159539023
-2.14823359e-05
5.31276157e-07
0.000161448392
-2.56201239e-05
3.8265103e-07
0.000164537747
-3.02774643e-05
2.26925033e-07
0.000169140482
-3.53312723e-05
6.16651478e-08
0.000175594142
-4.04830043e-05
-1.10701264e-07
0.000184140038
-4.51580229e-05
-2.77766036e-07
0.000194725611
-4.83752615e-05
-4.13620235e-07
0.000206681759
-4.86561385e-05
-4.61231199e-07
-4.41507281e-05
-3.78541366e-07
0.000218381107