/*--------------------------------*- C++ -*----------------------------------*\
| =========                 |                                                 |
| \\      /  F ield         | foam-extend: Open Source CFD                    |
|  \\    /   O peration     | Version:     4.1                                |
|   \\  /    A nd           | Web:         http://www.foam-extend.org         |
|    \\/     M anipulation  |                                                 |
\*---------------------------------------------------------------------------*/
FoamFile
{
    version     2.0;
    format      ascii;
    class       pointVectorField;
    location    "0.45";
    object      pointMotionU;
}
// * * * * * * * * * * * * * * * * * * * * * * * * * * * * * * * * * * * * * //

dimensions      [0 1 -1 0 0 0 0];

internalField   nonuniform List<vector> 
40832
(
(0 0 0)
(0 0 0)
(0 0 0)
(0 0 0)
(0 0 0)
(0 0 0)
(0 0 0)
(0 0 0)
(0 0 0)
(0 0 0)
(0 0 0)
(0 0 0)
(0 0 0)
(0 0 0)
(0 0 0)
(0 0 0)
(0 0 0)
(0 0 0)
(0 0 0)
(0 0 0)
(0 0 0)
(0 0 0)
(0 0 0)
(0 0 0)
(0 0 0)
(0 0 0)
(0 0 0)
(0 0 0)
(0 0 0)
(0 0 0)
(0 0 0)
(0 0 0)
(0 0 0)
(0 0 0)
(0 0 0)
(0 0 0)
(0 0 0)
(0 0 0)
(0 0 0)
(0 0 0)
(0 0 0)
(0 0 0)
(0 0 0)
(0 0 0)
(0 0 0)
(0 0 0)
(0 0 0)
(0 0 0)
(0 0 0)
(0 0 0)
(0 0 0)
(0 0 0)
(0 0 0)
(0 0 0)
(0 0 0)
(0 0 0)
(0 0 0)
(0 0 0)
(0 0 0)
(0 0 0)
(0 0 0)
(0 0 0)
(0 0 0)
(0 0 0)
(0 0 0)
(0 0 0)
(0 0 0)
(0 0 0)
(0 0 0)
(0 0 0)
(0 0 0)
(0 0 0)
(0 0 0)
(0 0 0)
(0 0 0)
(0 0 0)
(0 0 0)
(0 0 0)
(0 0 0)
(0 0 0)
(0 0 0)
(0 0 0)
(0 0 0)
(0 0 0)
(0 0 0)
(0 0 0)
(0 0 0)
(0 0 0)
(0 0 0)
(0 0 0)
(0 0 0)
(0 0 0)
(0 0 0)
(0 0 0)
(0 0 0)
(0 0 0)
(0 0 0)
(0 0 0)
(0 0 0)
(0 0 0)
(0 0 0)
(0 0 0)
(0 0 0)
(0 0 0)
(0 0 0)
(0 0 0)
(0 0 0)
(0 0 0)
(0 0 0)
(0 0 0)
(0 0 0)
(0 0 0)
(0 0 0)
(0 0 0)
(0 0 0)
(0 0 0)
(0 0 0)
(0 0 0)
(0 0 0)
(0 0 0)
(0 0 0)
(0 0 0)
(0 0 0)
(0 0 0)
(0 0 0)
(0 0 0)
(0 0 0)
(0 0 0)
(0 0 0)
(0 0 0)
(0 0 0)
(0 0 0)
(0 0 0)
(0 0 0)
(0 0 0)
(0 0 0)
(0 0 0)
(0 0 0)
(0 0 0)
(0 0 0)
(0 0 0)
(0 0 0)
(0 0 0)
(0 0 0)
(0 0 0)
(0 0 0)
(0 0 0)
(0 0 0)
(0 0 0)
(0 0 0)
(0 0 0)
(0 0 0)
(0 0 0)
(0 0 0)
(0 0 0)
(0 0 0)
(0 0 0)
(0 0 0)
(0 0 0)
(0 0 0)
(0 0 0)
(0 0 0)
(0 0 0)
(0 0 0)
(0 0 0)
(0 0 0)
(0 0 0)
(0 0 0)
(0 0 0)
(0 0 0)
(0 0 0)
(0 0 0)
(0 0 0)
(0 0 0)
(0 0 0)
(0 0 0)
(0 0 0)
(0 0 0)
(0 0 0)
(0 0 0)
(0 0 0)
(0 0 0)
(0 0 0)
(0 0 0)
(0 0 0)
(0 0 0)
(0 0 0)
(0 0 0)
(0 0 0)
(0 0 0)
(0 0 0)
(0 0 0)
(0 0 0)
(0 0 0)
(0 0 0)
(0 0 0)
(0 0 0)
(0 0 0)
(0 0 0)
(0 0 0)
(0 0 0)
(0 0 0)
(0 0 0)
(0 0 0)
(0 0 0)
(0 0 0)
(0 0 0)
(0 0 0)
(0 0 0)
(0 0 0)
(0 0 0)
(0 0 0)
(0 0 0)
(0 0 0)
(0 0 0)
(0 0 0)
(0 0 0)
(0 0 0)
(0 0 0)
(0 0 0)
(0 0 0)
(0 0 0)
(0 0 0)
(0 0 0)
(0 0 0)
(0 0 0)
(0 0 0)
(0 0 0)
(0 0 0)
(0 0 0)
(0 0 0)
(0 0 0)
(0 0 0)
(0 0 0)
(0 0 0)
(0 0 0)
(0 0 0)
(0 0 0)
(0 0 0)
(0 0 0)
(0 0 0)
(0 0 0)
(0 0 0)
(0 0 0)
(0 0 0)
(0 0 0)
(0 0 0)
(0 0 0)
(0 0 0)
(0 0 0)
(0 0 0)
(0 0 0)
(0 0 0)
(0 0 0)
(0 0 0)
(0 0 0)
(0 0 0)
(0 0 0)
(0 0 0)
(0 0 0)
(0 0 0)
(0 0 0)
(0 0 0)
(0 0 0)
(0 0 0)
(0 0 0)
(0 0 0)
(0 0 0)
(0 0 0)
(0 0 0)
(0 0 0)
(0 0 0)
(0 0 0)
(0 0 0)
(0 0 0)
(0 0 0)
(0 0 0)
(0 0 0)
(0 0 0)
(0 0 0)
(0 0 0)
(0 0 0)
(0 0 0)
(0 0 0)
(0 0 0)
(0 0 0)
(0 0 0)
(0 0 0)
(0 0 0)
(0 0 0)
(0 0 0)
(0 0 0)
(0 0 0)
(0 0 0)
(0 0 0)
(0 0 0)
(0 0 0)
(0 0 0)
(0 0 0)
(0 0 0)
(0 0 0)
(0 0 0)
(0 0 0)
(0 0 0)
(0 0 0)
(0 0 0)
(0 0 0)
(0 0 0)
(0 0 0)
(0 0 0)
(0 0 0)
(0 0 0)
(0 0 0)
(0 0 0)
(0 0 0)
(0 0 0)
(0 0 0)
(0 0 0)
(0 0 0)
(0 0 0)
(0 0 0)
(0 0 0)
(0 0 0)
(0 0 0)
(0 0 0)
(0 0 0)
(0 0 0)
(0 0 0)
(0 0 0)
(0 0 0)
(0 0 0)
(0 0 0)
(0 0 0)
(0 0 0)
(0 0 0)
(0 0 0)
(0 0 0)
(0 0 0)
(0 0 0)
(0 0 0)
(0 0 0)
(0 0 0)
(0 0 0)
(0 0 0)
(0 0 0)
(0 0 0)
(0 0 0)
(0 0 0)
(0 0 0)
(0 0 0)
(0 0 0)
(0 0 0)
(0 0 0)
(0 0 0)
(0 0 0)
(0 0 0)
(0 0 0)
(0 0 0)
(0 0 0)
(0 0 0)
(0 0 0)
(0 0 0)
(0 0 0)
(0 0 0)
(0 0 0)
(0 0 0)
(0 0 0)
(0 0 0)
(0 0 0)
(0 0 0)
(0 0 0)
(0 0 0)
(0 0 0)
(0 0 0)
(0 0 0)
(0 0 0)
(0 0 0)
(0 0 0)
(0 0 0)
(0 0 0)
(0 0 0)
(0 0 0)
(0 0 0)
(0 0 0)
(0 0 0)
(0 0 0)
(0 0 0)
(0 0 0)
(0 0 0)
(0 0 0)
(0 0 0)
(0 0 0)
(0 0 0)
(0 0 0)
(0 0 0)
(0 0 0)
(0 0 0)
(0 0 0)
(0 0 0)
(0 0 0)
(0 0 0)
(0 0 0)
(0 0 0)
(0 0 0)
(0 0 0)
(0 0 0)
(0 0 0)
(0 0 0)
(0 0 0)
(0 0 0)
(0 0 0)
(0 0 0)
(0 0 0)
(0 0 0)
(0 0 0)
(0 0 0)
(0 0 0)
(0 0 0)
(0 0 0)
(0 0 0)
(0 0 0)
(0 0 0)
(0 0 0)
(0 0 0)
(0 0 0)
(0 0 0)
(0 0 0)
(0 0 0)
(0 0 0)
(0 0 0)
(0 0 0)
(0 0 0)
(0 0 0)
(0 0 0)
(0 0 0)
(0 0 0)
(0 0 0)
(0 0 0)
(0 0 0)
(0 0 0)
(0 0 0)
(0 0 0)
(0 0 0)
(0 0 0)
(0 0 0)
(0 0 0)
(0 0 0)
(0 0 0)
(0 0 0)
(0 0 0)
(0 0 0)
(0 0 0)
(0 0 0)
(0 0 0)
(0 0 0)
(0 0 0)
(0 0 0)
(0 0 0)
(0 0 0)
(0 0 0)
(0 0 0)
(0 0 0)
(0 0 0)
(0 0 0)
(0 0 0)
(0 0 0)
(0 0 0)
(0 0 0)
(0 0 0)
(0 0 0)
(0 0 0)
(0 0 0)
(0 0 0)
(0 0 0)
(0 0 0)
(0 0 0)
(0 0 0)
(0 0 0)
(0 0 0)
(0 0 0)
(0 0 0)
(0 0 0)
(0 0 0)
(0 0 0)
(0 0 0)
(0 0 0)
(0 0 0)
(0 0 0)
(0 0 0)
(0 0 0)
(0 0 0)
(0 0 0)
(0 0 0)
(0 0 0)
(0 0 0)
(0 0 0)
(0 0 0)
(0 0 0)
(0 0 0)
(0 0 0)
(0 0 0)
(0 0 0)
(0 0 0)
(0 0 0)
(0 0 0)
(0 0 0)
(0 0 0)
(0 0 0)
(0 0 0)
(0 0 0)
(0 0 0)
(0 0 0)
(0 0 0)
(0 0 0)
(0 0 0)
(0 0 0)
(0 0 0)
(0 0 0)
(0 0 0)
(0 0 0)
(0 0 0)
(0 0 0)
(0 0 0)
(0 0 0)
(0 0 0)
(0 0 0)
(0 0 0)
(0 0 0)
(0 0 0)
(0 0 0)
(0 0 0)
(0 0 0)
(0 0 0)
(0 0 0)
(0 0 0)
(0 0 0)
(0 0 0)
(0 0 0)
(0 0 0)
(0 0 0)
(0 0 0)
(0 0 0)
(0 0 0)
(0 0 0)
(0 0 0)
(0 0 0)
(0 0 0)
(0 0 0)
(0 0 0)
(0 0 0)
(0 0 0)
(0 0 0)
(0 0 0)
(0 0 0)
(0 0 0)
(0 0 0)
(0 0 0)
(0 0 0)
(0 0 0)
(0 0 0)
(0 0 0)
(0 0 0)
(0 0 0)
(0 0 0)
(0 0 0)
(0 0 0)
(0 0 0)
(0 0 0)
(0 0 0)
(0 0 0)
(0 0 0)
(0 0 0)
(0 0 0)
(0 0 0)
(0 0 0)
(0 0 0)
(0 0 0)
(0 0 0)
(0 0 0)
(0 0 0)
(0 0 0)
(0 0 0)
(0 0 0)
(0 0 0)
(0 0 0)
(0 0 0)
(0 0 0)
(0 0 0)
(0 0 0)
(0 0 0)
(0 0 0)
(0 0 0)
(0 0 0)
(0 0 0)
(0 0 0)
(0 0 0)
(0 0 0)
(0 0 0)
(0 0 0)
(0 0 0)
(0 0 0)
(0 0 0)
(0 0 0)
(0 0 0)
(0 0 0)
(0 0 0)
(0 0 0)
(0 0 0)
(0 0 0)
(0 0 0)
(0 0 0)
(0 0 0)
(0 0 0)
(0 0 0)
(0 0 0)
(0 0 0)
(0 0 0)
(0 0 0)
(0 0 0)
(0 0 0)
(0 0 0)
(0 0 0)
(0 0 0)
(0 0 0)
(0 0 0)
(0 0 0)
(0 0 0)
(0 0 0)
(0 0 0)
(0 0 0)
(0 0 0)
(0 0 0)
(0 0 0)
(0 0 0)
(0 0 0)
(0 0 0)
(0 0 0)
(0 0 0)
(0 0 0)
(0 0 0)
(0 0 0)
(0 0 0)
(0 0 0)
(0 0 0)
(0 0 0)
(0 0 0)
(0 0 0)
(0 0 0)
(0 0 0)
(0 0 0)
(0 0 0)
(0 0 0)
(0 0 0)
(0 0 0)
(0 0 0)
(0 0 0)
(0 0 0)
(0 0 0)
(0 0 0)
(0 0 0)
(0 0 0)
(0 0 0)
(0 0 0)
(0 0 0)
(0 0 0)
(0 0 0)
(0 0 0)
(0 0 0)
(0 0 0)
(0 0 0)
(0 0 0)
(0 0 0)
(0 0 0)
(0 0 0)
(0 0 0)
(0 0 0)
(0 0 0)
(0 0 0)
(0 0 0)
(0 0 0)
(0 0 0)
(0 0 0)
(0 0 0)
(0 0 0)
(0 0 0)
(0 0 0)
(0 0 0)
(0 0 0)
(0 0 0)
(0 0 0)
(0 0 0)
(0 0 0)
(0 0 0)
(0 0 0)
(0 0 0)
(0 0 0)
(0 0 0)
(0 0 0)
(0 0 0)
(0 0 0)
(0 0 0)
(0 0 0)
(0 0 0)
(0 0 0)
(0 0 0)
(0 0 0)
(0 0 0)
(0 0 0)
(0 0 0)
(0 0 0)
(0 0 0)
(0 0 0)
(0 0 0)
(0 0 0)
(0 0 0)
(0 0 0)
(0 0 0)
(0 0 0)
(0 0 0)
(0 0 0)
(0 0 0)
(0 0 0)
(0 0 0)
(0 0 0)
(0 0 0)
(0 0 0)
(0 0 0)
(0 0 0)
(0 0 0)
(0 0 0)
(0 0 0)
(0 0 0)
(0 0 0)
(0 0 0)
(0 0 0)
(0 0 0)
(0 0 0)
(0 0 0)
(0 0 0)
(0 0 0)
(0 0 0)
(0 0 0)
(0 0 0)
(0 0 0)
(0 0 0)
(0 0 0)
(0 0 0)
(0 0 0)
(0 0 0)
(0 0 0)
(0 0 0)
(0 0 0)
(0 0 0)
(0 0 0)
(0 0 0)
(0 0 0)
(0 0 0)
(0 0 0)
(0 0 0)
(0 0 0)
(0 0 0)
(0 0 0)
(0 0 0)
(0 0 0)
(0 0 0)
(0 0 0)
(0 0 0)
(0 0 0)
(0 0 0)
(0 0 0)
(0 0 0)
(0 0 0)
(0 0 0)
(0 0 0)
(0 0 0)
(0 0 0)
(0 0 0)
(0 0 0)
(0 0 0)
(0 0 0)
(0 0 0)
(0 0 0)
(0 0 0)
(0 0 0)
(0 0 0)
(0 0 0)
(0 0 0)
(0 0 0)
(0 0 0)
(0 0 0)
(0 0 0)
(0 0 0)
(0 0 0)
(0 0 0)
(0 0 0)
(0 0 0)
(0 0 0)
(0 0 0)
(0 0 0)
(0 0 0)
(0 0 0)
(0 0 0)
(0 0 0)
(0 0 0)
(0 0 0)
(0 0 0)
(0 0 0)
(0 0 0)
(0 0 0)
(0 0 0)
(0 0 0)
(0 0 0)
(0 0 0)
(0 0 0)
(0 0 0)
(0 0 0)
(0 0 0)
(0 0 0)
(0 0 0)
(0 0 0)
(0 0 0)
(0 0 0)
(0 0 0)
(0 0 0)
(0 0 0)
(0 0 0)
(0 0 0)
(0 0 0)
(0 0 0)
(0 0 0)
(0 0 0)
(0 0 0)
(0 0 0)
(0 0 0)
(0 0 0)
(0 0 0)
(0 0 0)
(0 0 0)
(0 0 0)
(0 0 0)
(0 0 0)
(0 0 0)
(0 0 0)
(0 0 0)
(0 0 0)
(0 0 0)
(0 0 0)
(0 0 0)
(0 0 0)
(0 0 0)
(0 0 0)
(0 0 0)
(0 0 0)
(0 0 0)
(0 0 0)
(0 0 0)
(0 0 0)
(0 0 0)
(0 0 0)
(0 0 0)
(0 0 0)
(0 0 0)
(0 0 0)
(0 0 0)
(0 0 0)
(0 0 0)
(0 0 0)
(0 0 0)
(0 0 0)
(0 0 0)
(0 0 0)
(-1.01160348e-20 1.10265467e-08 -1.92369655e-21)
(-2.04400686e-20 2.22797082e-08 -3.88693906e-21)
(-3.13561505e-20 3.41779341e-08 -5.96275052e-21)
(-4.33310248e-20 4.72297815e-08 -8.23987678e-21)
(-5.68270972e-20 6.19390905e-08 -1.08062341e-20)
(-7.230833e-20 7.8811387e-08 -1.37500282e-20)
(-9.02429103e-20 9.8356776e-08 -1.71602589e-20)
(-1.11102084e-19 1.21088655e-07 -2.11264958e-20)
(-1.35354595e-19 1.47517638e-07 -2.57378179e-20)
(-1.63456239e-19 1.78140154e-07 -3.10808235e-20)
(-1.95834175e-19 2.13421338e-07 -3.7236644e-20)
(-2.32865854e-19 2.53772066e-07 -4.42769348e-20)
(-2.74852789e-19 2.99520375e-07 -5.22588865e-20)
(-3.21989837e-19 3.50878015e-07 -6.12193861e-20)
(-3.74331304e-19 4.07903549e-07 -7.11685766e-20)
(-4.31755838e-19 4.70464158e-07 -8.20831916e-20)
(-4.93932829e-19 5.38199101e-07 -9.39001823e-20)
(-5.60293688e-19 6.10488504e-07 -1.06511278e-19)
(-6.30011871e-19 6.86431683e-07 -1.19759214e-19)
(-7.0199564e-19 7.64839332e-07 -1.33436385e-19)
(-7.74897285e-19 8.44243631e-07 -1.47286629e-19)
(-8.47141623e-19 9.2292932e-07 -1.61010669e-19)
(-9.16975122e-19 9.98987204e-07 -1.74275464e-19)
(-9.82535026e-19 1.0703894e-06 -1.86727356e-19)
(-1.04193552e-18 1.13508312e-06 -1.9800842e-19)
(-1.09336573e-18 1.19109724e-06 -2.07775057e-19)
(-1.13519249e-18 1.23665415e-06 -2.15717473e-19)
(-1.1660602e-18 1.27027837e-06 -2.21578589e-19)
(0 0 0)
(-2.04431784e-20 2.22831003e-08 -3.88753042e-21)
(-4.13012553e-20 4.50182103e-08 -7.85394206e-21)
(-6.33561056e-20 6.90572406e-08 -1.20478988e-20)
(-8.75611344e-20 9.54390084e-08 -1.66506771e-20)
(-1.1486086e-19 1.25192659e-07 -2.18418533e-20)
(-1.46203819e-19 1.59351682e-07 -2.78017528e-20)
(-1.82548695e-19 1.98960567e-07 -3.47126108e-20)
(-2.24862537e-19 2.45072816e-07 -4.27582254e-20)
(-2.74109915e-19 2.98739095e-07 -5.21218894e-20)
(-3.31231998e-19 3.60984396e-07 -6.29824037e-20)
(-3.97114767e-19 4.32773374e-07 -7.55080254e-20)
(-4.7254602e-19 5.1496348e-07 -8.98482856e-20)
(-5.58161518e-19 6.08246291e-07 -1.06123746e-19)
(-6.54381585e-19 7.1307848e-07 -1.24413949e-19)
(-7.61340747e-19 8.29605228e-07 -1.44744044e-19)
(-8.78814398e-19 9.57580445e-07 -1.67070873e-19)
(-1.00614806e-18 1.09628987e-06 -1.91269551e-19)
(-1.14219626e-18 1.24448461e-06 -2.1712189e-19)
(-1.28527901e-18 1.40033401e-06 -2.44308198e-19)
(-1.43316451e-18 1.56140686e-06 -2.7240405e-19)
(-1.58308584e-18 1.72468985e-06 -3.00883544e-19)
(-1.73179801e-18 1.88664965e-06 -3.29130196e-19)
(-1.87567832e-18 2.0433423e-06 -3.56456068e-19)
(-2.01086909e-18 2.19056852e-06 -3.8212889e-19)
(-2.13345663e-18 2.32406851e-06 -4.05406047e-19)
(-2.23967563e-18 2.43974424e-06 -4.25573324e-19)
(-2.32612368e-18 2.53389281e-06 -4.41985545e-19)
(-2.38996857e-18 2.60343189e-06 -4.54105812e-19)
(0 0 0)
(-3.1365729e-20 3.41883844e-08 -5.96457197e-21)
(-6.3365876e-20 6.90679024e-08 -1.20497567e-20)
(-9.72182615e-20 1.05965453e-07 -1.84871035e-20)
(-1.34413231e-19 1.46504891e-07 -2.55599747e-20)
(-1.76428981e-19 1.92296825e-07 -3.3549404e-20)
(-2.24753618e-19 2.44962587e-07 -4.27382831e-20)
(-2.80896448e-19 3.06146478e-07 -5.34134976e-20)
(-3.4638671e-19 3.77514325e-07 -6.58656743e-20)
(-4.22757959e-19 4.60736397e-07 -8.03861971e-20)
(-5.11516365e-19 5.57452792e-07 -9.72611634e-20)
(-6.14091542e-19 6.69219818e-07 -1.16762019e-19)
(-7.31769149e-19 7.97436527e-07 -1.3913273e-19)
(-8.65605554e-19 9.43251761e-07 -1.64573546e-19)
(-1.01632637e-18 1.10745368e-06 -1.9322171e-19)
(-1.18421266e-18 1.29034593e-06 -2.25129844e-19)
(-1.36898105e-18 1.49161724e-06 -2.60243182e-19)
(-1.56966639e-18 1.71021391e-06 -2.98377338e-19)
(-1.78451844e-18 1.94422752e-06 -3.39198746e-19)
(-2.01092563e-18 2.19081226e-06 -3.8221029e-19)
(-2.24538017e-18 2.44614722e-06 -4.26744819e-19)
(-2.48349814e-18 2.70545846e-06 -4.71969096e-19)
(-2.72010531e-18 2.96311269e-06 -5.1690026e-19)
(-2.94939489e-18 3.21278901e-06 -5.60435892e-19)
(-3.16515627e-18 3.44772781e-06 -6.01397497e-19)
(-3.36106522e-18 3.66104662e-06 -6.38585596e-19)
(-3.53101785e-18 3.84610326e-06 -6.70843e-19)
(-3.66948241e-18 3.99687848e-06 -6.97121408e-19)
(-3.77183888e-18 4.10834528e-06 -7.16545614e-19)
(0 0 0)
(-4.33495858e-20 4.72500368e-08 -8.24340635e-21)
(-8.75856013e-20 9.5465715e-08 -1.66553297e-20)
(-1.34430278e-19 1.46523505e-07 -2.55632164e-20)
(-1.85997768e-19 2.02726917e-07 -3.53690224e-20)
(-2.44390242e-19 2.66366355e-07 -4.64723956e-20)
(-3.1173267e-19 3.39756909e-07 -5.92772728e-20)
(-3.90192072e-19 4.2525923e-07 -7.41955238e-20)
(-4.81978718e-19 5.25280743e-07 -9.16471573e-20)
(-5.89326558e-19 6.42254203e-07 -1.12056573e-19)
(-7.14450193e-19 7.78590711e-07 -1.35844353e-19)
(-8.5947604e-19 9.36604633e-07 -1.63414137e-19)
(-1.02634614e-18 1.11840876e-06 -1.95134311e-19)
(-1.21669443e-18 1.32577958e-06 -2.31314462e-19)
(-1.43169759e-18 1.55999486e-06 -2.72177005e-19)
(-1.67190524e-18 1.821649e-06 -3.17824938e-19)
(-1.93705834e-18 2.11045545e-06 -3.6820736e-19)
(-2.22590807e-18 2.42505e-06 -4.23085162e-19)
(-2.53605225e-18 2.76281307e-06 -4.82000087e-19)
(-2.86380913e-18 3.11973279e-06 -5.44250967e-19)
(-3.20415102e-18 3.49033315e-06 -6.08881369e-19)
(-3.55071923e-18 3.86769074e-06 -6.74682729e-19)
(-3.89593899e-18 4.24356e-06 -7.40216457e-19)
(-4.23124521e-18 4.60861906e-06 -8.03857037e-19)
(-4.54741971e-18 4.95283673e-06 -8.63856165e-19)
(-4.83502684e-18 5.26594628e-06 -9.184254e-19)
(-5.0849203e-18 5.53799675e-06 -9.6583215e-19)
(-5.28878128e-18 5.75993805e-06 -1.00450139e-18)
(-5.43963924e-18 5.92418719e-06 -1.03311399e-18)
(0 0 0)
(-5.68567366e-20 6.19714434e-08 -1.08118703e-20)
(-1.14904155e-19 1.2523993e-07 -2.18500861e-20)
(-1.76469201e-19 1.92340755e-07 -3.35570522e-20)
(-2.44415377e-19 2.66393818e-07 -4.64771751e-20)
(-3.21600338e-19 3.50512515e-07 -6.11536995e-20)
(-4.10928701e-19 4.47861102e-07 -7.81387244e-20)
(-5.15383552e-19 5.6168888e-07 -9.79991636e-20)
(-6.3803319e-19 6.95337372e-07 -1.21317989e-19)
(-7.82009092e-19 8.5221614e-07 -1.48689996e-19)
(-9.50451056e-19 1.03574285e-06 -1.80711316e-19)
(-1.14641569e-18 1.24924347e-06 -2.17961961e-19)
(-1.37274524e-18 1.4958093e-06 -2.60980825e-19)
(-1.63189552e-18 1.77810962e-06 -3.10232923e-19)
(-1.92572465e-18 2.09816179e-06 -3.66069208e-19)
(-2.25524847e-18 2.45706523e-06 -4.28680092e-19)
(-2.62037375e-18 2.85471142e-06 -4.98044825e-19)
(-3.01962657e-18 3.28948881e-06 -5.73880037e-19)
(-3.44989959e-18 3.75800835e-06 -6.55591998e-19)
(-3.90624799e-18 4.25488215e-06 -7.42238228e-19)
(-4.38176764e-18 4.77259148e-06 -8.32504859e-19)
(-4.86758998e-18 5.30148174e-06 -9.24706207e-19)
(-5.35302361e-18 5.8299169e-06 -1.01681223e-18)
(-5.82586292e-18 6.34461541e-06 -1.10650757e-18)
(-6.27286778e-18 6.83117211e-06 -1.19128287e-18)
(-6.68039781e-18 7.27474797e-06 -1.26855506e-18)
(-7.03516155e-18 7.66088483e-06 -1.33580909e-18)
(-7.32501994e-18 7.97637899e-06 -1.39074961e-18)
(-7.53976857e-18 8.2101317e-06 -1.43144827e-18)
(0 0 0)
(-7.23510471e-20 7.88580258e-08 -1.37581511e-20)
(-1.46270112e-19 1.59424082e-07 -2.78143588e-20)
(-2.24823465e-19 2.45038896e-07 -4.27515647e-20)
(-3.11791582e-19 3.39821293e-07 -5.92884749e-20)
(-4.10964516e-19 4.47900255e-07 -7.81455344e-20)
(-5.26220243e-19 5.73500017e-07 -1.00059784e-19)
(-6.61574683e-19 7.20994333e-07 -1.25794317e-19)
(-8.21198775e-19 8.94924809e-07 -1.56141462e-19)
(-1.00939663e-18 1.09997684e-06 -1.91918545e-19)
(-1.23053888e-18 1.34090676e-06 -2.33955114e-19)
(-1.48894515e-18 1.62241361e-06 -2.83070491e-19)
(-1.78871019e-18 1.94894974e-06 -3.40040598e-19)
(-2.13347029e-18 2.32446648e-06 -4.0555345e-19)
(-2.52611039e-18 2.75209558e-06 -4.80153413e-19)
(-2.96841806e-18 3.23377295e-06 -5.64175444e-19)
(-3.46069814e-18 3.76981994e-06 -6.57671965e-19)
(-4.00137094e-18 4.35850686e-06 -7.60336786e-19)
(-4.58658705e-18 4.99563483e-06 -8.71432404e-19)
(-5.20990167e-18 5.67418231e-06 -9.89728839e-19)
(-5.8620589e-18 6.38407123e-06 -1.11346358e-18)
(-6.53093939e-18 7.11211073e-06 -1.24033274e-18)
(-7.20172068e-18 7.84217196e-06 -1.36752256e-18)
(-7.85728597e-18 8.5556328e-06 -1.49178796e-18)
(-8.47889375e-18 9.2321062e-06 -1.60958015e-18)
(-9.04708882e-18 9.8504308e-06 -1.71721937e-18)
(-9.54279862e-18 1.0389863e-05 -1.81110205e-18)
(-9.94852367e-18 1.08313711e-05 -1.88792504e-18)
(-1.02495057e-17 1.11589058e-05 -1.94490496e-18)
(0 0 0)
(-9.03007301e-20 9.84199179e-08 -1.71712534e-20)
(-1.82642965e-19 1.99063542e-07 -3.47305362e-20)
(-2.81004402e-19 3.06264439e-07 -5.34340247e-20)
(-3.90296454e-19 4.25373324e-07 -7.42153713e-20)
(-5.15469584e-19 5.6178294e-07 -9.80155214e-20)
(-6.6162716e-19 7.21051717e-07 -1.25804295e-19)
(-8.34102852e-19 9.08987721e-07 -1.58595012e-19)
(-1.03849555e-18 1.1316863e-06 -1.97451021e-19)
(-1.28065215e-18 1.39551093e-06 -2.43482275e-19)
(-1.56659028e-18 1.70700869e-06 -2.97830466e-19)
(-1.90235193e-18 2.07275058e-06 -3.61640992e-19)
(-2.29377809e-18 2.4990861e-06 -4.36019894e-19)
(-2.7461974e-18 2.99180435e-06 -5.21974454e-19)
(-3.26402615e-18 3.55569912e-06 -6.20337013e-19)
(-3.8502851e-18 4.19404379e-06 -7.31673097e-19)
(-4.50604904e-18 4.9079933e-06 -8.56176959e-19)
(-5.22985834e-18 5.69594516e-06 -9.93560211e-19)
(-6.01713746e-18 6.55290801e-06 -1.14294218e-18)
(-6.85968119e-18 7.46994399e-06 -1.30275358e-18)
(-7.74528351e-18 8.43376595e-06 -1.47066777e-18)
(-8.65759142e-18 9.42657908e-06 -1.64357503e-18)
(-9.57626358e-18 1.04262537e-05 -1.81761488e-18)
(-1.04774962e-17 1.14068973e-05 -1.98827772e-18)
(-1.13349455e-17 1.23398571e-05 -2.15058108e-18)
(-1.21210269e-17 1.31951331e-05 -2.29931591e-18)
(-1.2808513e-17 1.39431148e-05 -2.42934812e-18)
(-1.33722944e-17 1.45564968e-05 -2.53594927e-18)
(-1.37911239e-17 1.50121742e-05 -2.61512293e-18)
(0 0 0)
(-1.11176554e-19 1.21169998e-07 -2.11406559e-20)
(-2.2499116e-19 2.45213337e-07 -4.2782682e-20)
(-3.46545611e-19 3.77687967e-07 -6.58958875e-20)
(-4.82146811e-19 5.25464474e-07 -9.16791174e-20)
(-6.38191971e-19 6.95510963e-07 -1.21348178e-19)
(-8.21329267e-19 8.95067498e-07 -1.56166271e-19)
(-1.03857498e-18 1.13177317e-06 -1.9746612e-19)
(-1.29737864e-18 1.41373648e-06 -2.4666216e-19)
(-1.60561703e-18 1.7495282e-06 -3.05249139e-19)
(-1.97150957e-18 2.1480888e-06 -3.74785724e-19)
(-2.40344211e-18 2.61853617e-06 -4.56860612e-19)
(-2.90968119e-18 3.16985457e-06 -5.53037807e-19)
(-3.49796594e-18 3.81045073e-06 -6.64778618e-19)
(-4.17496925e-18 4.5475682e-06 -7.93338894e-19)
(-4.94563076e-18 5.38656269e-06 -9.39642086e-19)
(-5.81237826e-18 6.33005655e-06 -1.10413147e-18)
(-6.77427386e-18 7.37701149e-06 -1.28660856e-18)
(-7.82614382e-18 8.52178376e-06 -1.48606928e-18)
(-8.95777711e-18 9.75325372e-06 -1.70055391e-18)
(-1.0153302e-17 1.10541488e-05 -1.92703196e-18)
(-1.13908672e-17 1.24006967e-05 -2.16134554e-18)
(-1.26427549e-17 1.37627488e-05 -2.39823508e-18)
(-1.38760344e-17 1.51044898e-05 -2.63146725e-18)
(-1.50538164e-17 1.63858013e-05 -2.85407541e-18)
(-1.61370962e-17 1.75642656e-05 -3.05870926e-18)
(-1.7087079e-17 1.85976938e-05 -3.23807274e-18)
(-1.78677871e-17 1.94469609e-05 -3.38541201e-18)
(-1.84486684e-17 2.00788433e-05 -3.49500118e-18)
(0 0 0)
(-1.35444141e-19 1.47615477e-07 -2.57548438e-20)
(-2.74280601e-19 2.98925587e-07 -5.21543422e-20)
(-4.22988862e-19 4.60988704e-07 -8.04300983e-20)
(-5.8958839e-19 6.42540355e-07 -1.12106353e-19)
(-7.82278052e-19 8.52510136e-07 -1.48741129e-19)
(-1.00964801e-18 1.10025168e-06 -1.91966333e-19)
(-1.2808542e-18 1.39573189e-06 -2.43520682e-19)
(-1.60573757e-18 1.74966008e-06 -3.05272051e-19)
(-1.99483587e-18 2.17349989e-06 -3.79219266e-19)
(-2.45929808e-18 2.67937558e-06 -4.67475284e-19)
(-3.01068231e-18 3.27985165e-06 -5.7222809e-19)
(-3.66060219e-18 3.98754803e-06 -6.95672697e-19)
(-4.42020173e-18 4.81456929e-06 -8.39910502e-19)
(-5.29943945e-18 5.77172693e-06 -1.00681247e-18)
(-6.30617817e-18 6.867551e-06 -1.19784571e-18)
(-7.44509513e-18 8.1071066e-06 -1.41386642e-18)
(-8.71645472e-18 9.49066122e-06 -1.65488771e-18)
(-1.01148186e-17 1.10122837e-05 -1.9198369e-18)
(-1.16278091e-17 1.26585004e-05 -2.20632463e-18)
(-1.32350833e-17 1.44071804e-05 -2.51045591e-18)
(-1.490771e-17 1.62268568e-05 -2.82671928e-18)
(-1.66081523e-17 1.80767074e-05 -3.14799202e-18)
(-1.82910397e-17 1.99073923e-05 -3.46569444e-18)
(-1.99048489e-17 2.16628806e-05 -3.77011422e-18)
(-2.13945032e-17 2.32832761e-05 -4.05090021e-18)
(-2.27047542e-17 2.47084948e-05 -4.29769791e-18)
(-2.37840471e-17 2.58824683e-05 -4.50086977e-18)
(-2.45884372e-17 2.67574045e-05 -4.65221964e-18)
(0 0 0)
(-1.63546127e-19 1.78238442e-07 -3.10979124e-20)
(-3.31451784e-19 3.61224557e-07 -6.30241891e-20)
(-5.11856821e-19 5.57824732e-07 -9.73258897e-20)
(-7.14855082e-19 7.79033102e-07 -1.35921326e-19)
(-9.50892378e-19 1.03622513e-06 -1.80795212e-19)
(-1.23098639e-18 1.34139589e-06 -2.3404018e-19)
(-1.56698877e-18 1.70744442e-06 -2.97906208e-19)
(-1.97181843e-18 2.14842671e-06 -3.74844421e-19)
(-2.45948157e-18 2.67957645e-06 -4.6751015e-19)
(-3.04499636e-18 3.31722227e-06 -5.78747641e-19)
(-3.74418322e-18 4.0785593e-06 -7.11548968e-19)
(-4.57323692e-18 4.98118389e-06 -8.68971254e-19)
(-5.54806658e-18 6.04237679e-06 -1.05400963e-18)
(-6.68335818e-18 7.27808531e-06 -1.26941753e-18)
(-7.99134891e-18 8.7015928e-06 -1.51747259e-18)
(-9.48031784e-18 1.03218799e-05 -1.79968958e-18)
(-1.11528413e-17 1.21417297e-05 -2.11649025e-18)
(-1.30039003e-17 1.41556715e-05 -2.46684753e-18)
(-1.50189936e-17 1.63479292e-05 -2.84793391e-18)
(-1.71724793e-17 1.8690617e-05 -3.25481728e-18)
(-1.94264336e-17 2.11424968e-05 -3.68025835e-18)
(-2.17303456e-17 2.36486429e-05 -4.11466926e-18)
(-2.4021956e-17 2.61413521e-05 -4.54628887e-18)
(-2.62294645e-17 2.85425411e-05 -4.96161344e-18)
(-2.82751719e-17 3.07677074e-05 -5.34609034e-18)
(-3.00803904e-17 3.27312688e-05 -5.68503905e-18)
(-3.15711875e-17 3.43528114e-05 -5.96471548e-18)
(-3.26842884e-17 3.55635113e-05 -6.1733946e-18)
(0 0 0)
(-1.95838402e-19 2.13426365e-07 -3.72374419e-20)
(-3.97383445e-19 4.33067002e-07 -7.55591001e-20)
(-6.14619819e-19 6.69796738e-07 -1.16862447e-19)
(-8.60100248e-19 9.37286466e-07 -1.63532797e-19)
(-1.14712755e-18 1.25002116e-06 -2.18097275e-19)
(-1.4897255e-18 1.62326621e-06 -2.83218811e-19)
(-1.90307374e-18 2.07353967e-06 -3.61778173e-19)
(-2.40405297e-18 2.61920446e-06 -4.56976687e-19)
(-3.01115945e-18 3.28037403e-06 -5.72318736e-19)
(-3.74446848e-18 4.07887186e-06 -7.11603147e-19)
(-4.62548094e-18 5.0380645e-06 -8.7889185e-19)
(-5.67660236e-18 6.18229599e-06 -1.07840825e-18)
(-6.92034545e-18 7.53602249e-06 -1.31438264e-18)
(-8.37811828e-18 9.12249736e-06 -1.59081879e-18)
(-1.00686004e-17 1.09620088e-05 -1.91118273e-18)
(-1.20056753e-17 1.30696351e-05 -2.27800864e-18)
(-1.41959836e-17 1.54525861e-05 -2.69243522e-18)
(-1.66361791e-17 1.81072208e-05 -3.15369009e-18)
(-1.93100803e-17 2.10159488e-05 -3.65856043e-18)
(-2.21860345e-17 2.41443599e-05 -4.20091119e-18)
(-2.52149139e-17 2.74390419e-05 -4.77133127e-18)
(-2.83292451e-17 3.08266282e-05 -5.35700044e-18)
(-3.14439765e-17 3.4214628e-05 -5.94186805e-18)
(-3.44592964e-17 3.74944889e-05 -6.50721376e-18)
(-3.72656875e-17 4.0547093e-05 -7.03261545e-18)
(-3.97510432e-17 4.3250498e-05 -7.49728169e-18)
(-4.18092207e-17 4.54892423e-05 -7.8816259e-18)
(-4.33489785e-17 4.71640701e-05 -8.16888754e-18)
(0 0 0)
(-2.32915917e-19 2.53827171e-07 -4.42864456e-20)
(-4.72912593e-19 5.15364051e-07 -8.99179686e-20)
(-7.32360806e-19 7.98082945e-07 -1.39245202e-19)
(-1.02708876e-18 1.11922025e-06 -1.95275469e-19)
(-1.3738614e-18 1.49702834e-06 -2.61192969e-19)
(-1.79009142e-18 1.95045817e-06 -3.40303102e-19)
(-2.29503357e-18 2.50045822e-06 -4.3625847e-19)
(-2.91077462e-18 3.17105067e-06 -5.53245542e-19)
(-3.66157012e-18 3.98860766e-06 -6.9585654e-19)
(-4.57399307e-18 4.98201248e-06 -8.69114823e-19)
(-5.67706504e-18 6.1828034e-06 -1.07849606e-18)
(-7.00151379e-18 7.62436814e-06 -1.32978243e-18)
(-8.57891326e-18 9.3410122e-06 -1.62889356e-18)
(-1.04401131e-17 1.13662556e-05 -1.98158199e-18)
(-1.26131428e-17 1.37305585e-05 -2.39302925e-18)
(-1.51203994e-17 1.64582673e-05 -2.86730771e-18)
(-1.7975279e-17 1.95639537e-05 -3.40674102e-18)
(-2.11782524e-17 2.3048146e-05 -4.01116642e-18)
(-2.47126163e-17 2.68927054e-05 -4.67714657e-18)
(-2.85403631e-17 3.10563276e-05 -5.39721827e-18)
(-3.25987763e-17 3.54708325e-05 -6.1592949e-18)
(-3.67985177e-17 4.00390769e-05 -6.94636563e-18)
(-4.10240272e-17 4.46353836e-05 -7.73663843e-18)
(-4.51369661e-17 4.91092839e-05 -8.50425058e-18)
(-4.89831381e-17 5.32930463e-05 -9.22060746e-18)
(-5.24027674e-17 5.70128584e-05 -9.85630548e-18)
(-5.5243261e-17 6.01027139e-05 -1.03834619e-17)
(-5.73728155e-17 6.24192183e-05 -1.07781475e-17)
(0 0 0)
(-2.75035104e-19 2.99719809e-07 -5.22935444e-20)
(-5.58586823e-19 6.08711279e-07 -1.06204597e-19)
(-8.66199002e-19 9.43900766e-07 -1.64686355e-19)
(-1.21760746e-18 1.32677764e-06 -2.31488005e-19)
(-1.63337028e-18 1.77972063e-06 -3.10513217e-19)
(-2.13512242e-18 2.32627191e-06 -4.05867432e-19)
(-2.74776941e-18 2.99352378e-06 -5.22273137e-19)
(-3.49978796e-18 3.81244364e-06 -6.65124689e-19)
(-4.42202424e-18 4.81656381e-06 -8.40256565e-19)
(-5.54962125e-18 6.04408013e-06 -1.0543047e-18)
(-6.92160329e-18 7.5374018e-06 -1.31462126e-18)
(-8.57964456e-18 9.34181512e-06 -1.6290322e-18)
(-1.05676534e-17 1.15050379e-05 -2.00574806e-18)
(-1.29295559e-17 1.40748154e-05 -2.45293118e-18)
(-1.57067768e-17 1.70961874e-05 -2.97820514e-18)
(-1.89343584e-17 2.06072714e-05 -3.58790821e-18)
(-2.26364801e-17 2.46343909e-05 -4.28623888e-18)
(-2.68209307e-17 2.91860599e-05 -5.07421515e-18)
(-3.14728391e-17 3.42461564e-05 -5.94851283e-18)
(-3.65483024e-17 3.97669821e-05 -6.90031182e-18)
(-4.19687463e-17 4.56631172e-05 -7.91431375e-18)
(-4.76171809e-17 5.18073392e-05 -8.96814998e-18)
(-5.33376503e-17 5.80300189e-05 -1.00324128e-17)
(-5.89391447e-17 6.41233745e-05 -1.10715218e-17)
(-6.4204887e-17 6.98515771e-05 -1.20455539e-17)
(-6.89070936e-17 7.49668116e-05 -1.29130098e-17)
(-7.28260503e-17 7.92300354e-05 -1.36342622e-17)
(-7.57709558e-17 8.24336577e-05 -1.41752148e-17)
(0 0 0)
(-3.22175243e-19 3.51081103e-07 -6.1254633e-20)
(-6.5477622e-19 7.13510636e-07 -1.2448897e-19)
(-1.01695882e-18 1.10814612e-06 -1.93341934e-19)
(-1.43270446e-18 1.56109658e-06 -2.72368388e-19)
(-1.92714464e-18 2.09971518e-06 -3.66339093e-19)
(-2.52764031e-18 2.7537707e-06 -4.80444158e-19)
(-3.26584535e-18 3.55769149e-06 -6.20682625e-19)
(-4.17718915e-18 4.54999948e-06 -7.93760519e-19)
(-5.30182626e-18 5.77434256e-06 -1.00726557e-18)
(-6.68623352e-18 7.28123463e-06 -1.26996301e-18)
(-8.38083684e-18 9.12547665e-06 -1.59133426e-18)
(-1.04420732e-17 1.13684073e-05 -1.9819533e-18)
(-1.29306967e-17 1.40760693e-05 -2.45314708e-18)
(-1.59083627e-17 1.73155018e-05 -3.01632452e-18)
(-1.94355411e-17 2.11524795e-05 -3.68255643e-18)
(-2.3565596e-17 2.56450763e-05 -4.46143005e-18)
(-2.83393707e-17 3.08377733e-05 -5.36000709e-18)
(-3.37774909e-17 3.67530788e-05 -6.38136913e-18)
(-3.98711846e-17 4.33815299e-05 -7.52291582e-18)
(-4.65726285e-17 5.06711775e-05 -8.77462404e-18)
(-5.37858018e-17 5.85176241e-05 -1.01174678e-17)
(-6.13596434e-17 6.67565722e-05 -1.15223425e-17)
(-6.90854863e-17 7.51610305e-05 -1.29498482e-17)
(-7.67009027e-17 8.34455001e-05 -1.43512852e-17)
(-8.39017838e-17 9.12791214e-05 -1.56711202e-17)
(-9.03633365e-17 9.8308524e-05 -1.68509435e-17)
(-9.57686232e-17 0.000104188881 -1.78345756e-17)
(-9.98407215e-17 0.000108618902 -1.85735793e-17)
(0 0 0)
(-3.74505317e-19 4.08094602e-07 -7.12016579e-20)
(-7.6170267e-19 8.30002538e-07 -1.44812847e-19)
(-1.18479119e-18 1.29098096e-06 -2.25239818e-19)
(-1.67275584e-18 1.82258253e-06 -3.17986617e-19)
(-2.2564011e-18 2.45833039e-06 -4.28899157e-19)
(-2.96986783e-18 3.23536499e-06 -5.64450934e-19)
(-3.85222712e-18 4.19617574e-06 -7.32042028e-19)
(-4.94788006e-18 5.38903376e-06 -9.40069276e-19)
(-6.30905822e-18 6.87071342e-06 -1.19839235e-18)
(-7.99491941e-18 8.70551133e-06 -1.51814995e-18)
(-1.00722135e-17 1.09659771e-05 -1.91186749e-18)
(-1.26171798e-17 1.3734988e-05 -2.39379328e-18)
(-1.57099012e-17 1.70996192e-05 -2.9787958e-18)
(-1.94368184e-17 2.115389e-05 -3.68279716e-18)
(-2.3885841e-17 2.59934526e-05 -4.52180065e-18)
(-2.91358839e-17 3.1704211e-05 -5.50986064e-18)
(-3.52528676e-17 3.83579624e-05 -6.65828411e-18)
(-4.22787393e-17 4.60004393e-05 -7.97354106e-18)
(-5.02180194e-17 5.46366569e-05 -9.45476267e-18)
(-5.90235834e-17 6.42154284e-05 -1.10911852e-17)
(-6.85820523e-17 7.46134598e-05 -1.28596458e-17)
(-7.87019115e-17 8.56224208e-05 -1.47227373e-17)
(-8.91070779e-17 9.69419497e-05 -1.66281176e-17)
(-9.9439389e-17 0.00010818237 -1.85095463e-17)
(-1.09273517e-16 0.000118880927 -2.02901383e-17)
(-1.1814638e-16 0.000128533788 -2.18879916e-17)
(-1.25599792e-16 0.000136642458 -2.322374e-17)
(-1.31230508e-16 0.000142768214 -2.42288764e-17)
(0 0 0)
(-4.3191372e-19 4.70638153e-07 -8.2113206e-20)
(-8.79139171e-19 9.57938386e-07 -1.67132613e-19)
(-1.36949368e-18 1.49218234e-06 -2.60340629e-19)
(-1.93779273e-18 2.11126527e-06 -3.68346948e-19)
(-2.62136557e-18 2.85580571e-06 -4.98233318e-19)
(-3.46199291e-18 3.77124936e-06 -6.57917987e-19)
(-4.50774792e-18 4.90986917e-06 -8.56499679e-19)
(-5.81457721e-18 6.33248435e-06 -1.10454902e-18)
(-7.4481534e-18 8.11047793e-06 -1.41444686e-18)
(-9.48377654e-18 1.03256952e-05 -1.80034571e-18)
(-1.2009915e-17 1.30743069e-05 -2.27881188e-18)
(-1.51251835e-17 1.64635351e-05 -2.86821328e-18)
(-1.89379411e-17 2.06112305e-05 -3.58858457e-18)
(-2.3568537e-17 2.56483272e-05 -4.46198223e-18)
(-2.91388106e-17 3.17074258e-05 -5.51040893e-18)
(-3.57638119e-17 3.89137818e-05 -6.75414833e-18)
(-4.35467025e-17 4.73797412e-05 -8.21070709e-18)
(-5.25636353e-17 5.71882702e-05 -9.89190377e-18)
(-6.28438092e-17 6.83712345e-05 -1.18001323e-17)
(-7.43498467e-17 8.08880357e-05 -1.39248428e-17)
(-8.69543985e-17 9.4600152e-05 -1.6238549e-17)
(-1.00420535e-16 0.000109249811 -1.86938391e-17)
(-1.14388379e-16 0.00012444546 -2.12218591e-17)
(-1.28373519e-16 0.000139660051 -2.37331875e-17)
(-1.41783717e-16 0.000154249231 -2.61220106e-17)
(-1.53959026e-16 0.000167494997 -2.82740565e-17)
(-1.6423528e-16 0.000178674764 -3.00777485e-17)
(-1.72022645e-16 0.000187146825 -3.14367983e-17)
(0 0 0)
(-4.94073888e-19 5.38355485e-07 -9.39269983e-20)
(-1.00643653e-18 1.09660979e-06 -1.91324387e-19)
(-1.57011832e-18 1.71071548e-06 -2.98463245e-19)
(-2.22655035e-18 2.42576355e-06 -4.23207238e-19)