/*--------------------------------*- C++ -*----------------------------------*\
| =========                 |                                                 |
| \\      /  F ield         | foam-extend: Open Source CFD                    |
|  \\    /   O peration     | Version:     4.1                                |
|   \\  /    A nd           | Web:         http://www.foam-extend.org         |
|    \\/     M anipulation  |                                                 |
\*---------------------------------------------------------------------------*/
FoamFile
{
    version     2.0;
    format      ascii;
    class       volScalarField;
    location    "0.45";
    object      rAU;
}
// * * * * * * * * * * * * * * * * * * * * * * * * * * * * * * * * * * * * * //

dimensions      [0 0 1 0 0 0 0];

internalField   nonuniform List<scalar> 
35840
(
0.000714285807
0.000836637682
0.000924548708
0.000999613087
0.00105386462
0.00109046387
0.00111504674
0.00113178745
0.00114331886
0.00115144041
0.00115736062
0.00116183317
0.00116531854
0.00116810424
0.0011703744
0.00117225053
0.00117381631
0.00117506536
0.00117611807
0.00117702386
0.00117780861
0.00117849453
0.00117910095
0.00117964484
0.00118014115
0.00118060301
0.00118104186
0.00118146749
0.00073908381
0.00081949762
0.000880892106
0.000951172815
0.00101612381
0.0010694456
0.00111046863
0.00114131779
0.00116442785
0.00118185748
0.00119521787
0.00120566988
0.00121400882
0.00122077709
0.00122634902
0.00123098703
0.0012348794
0.00123809122
0.00124081198
0.00124304632
0.00124491442
0.00124656297
0.00124803271
0.0012493595
0.00125057496
0.00125170691
0.00125277958
0.00125381378
0.000753175695
0.000833322898
0.000878398446
0.000929314358
0.000978234719
0.00102100092
0.00105596519
0.00108369719
0.00110556817
0.00112291101
0.00113682187
0.00114813332
0.00115744851
0.00116520215
0.00117171202
0.00117721408
0.00118188689
0.00118586865
0.00118926897
0.00119208945
0.00119426659
0.00119616632
0.00119787965
0.00119944371
0.00120089152
0.00120225221
0.00120355115
0.00120480997
0.000760309042
0.000850112895
0.000895623419
0.000941324907
0.000982257383
0.00101676063
0.00104457705
0.00106663263
0.00108423143
0.00109850162
0.00111028325
0.00112016553
0.00112855168
0.00113572271
0.00114188325
0.00114718911
0.00115176342
0.00115570651
0.00115910218
0.00116202188
0.00116409878
0.00116588108
0.00116751244
0.00116902503
0.0011704481
0.00117180772
0.00117312659
0.00117442382
0.000763382607
0.000860199361
0.00090977487
0.000956401445
0.000995498165
0.0010263848
0.00104993543
0.00106781997
0.00108169588
0.00109282183
0.0011020418
0.00110988367
0.00111666584
0.00112258298
0.00112776209
0.00113229412
0.0011362505
0.00113969153
0.0011426704
0.00114517346
0.00114675949
0.00114816614
0.00114947955
0.00115072514
0.00115192682
0.00115310626
0.00115428229
0.00115547041
0.000765074189
0.000866246708
0.000919348301
0.00096801524
0.00100751035
0.00103741408
0.00105912055
0.0010747901
0.00108640039
0.0010953904
0.00110269132
0.00110885878
0.00111420546
0.00111890344
0.00112304996
0.00112670498
0.00112991105
0.00113270306
0.00113511278
0.00113682161
0.00113778425
0.00113869274
0.00113956711
0.00114042795
0.0011412953
0.00114218752
0.00114312046
0.00114410663
0.000766121599
0.000870081451
0.000925796249
0.000976359383
0.00101677811
0.00104668988
0.00106773466
0.00108236377
0.00109277386
0.00110053831
0.0011066628
0.00111173947
0.00111609507
0.00111990295
0.00112325425
0.00112619879
0.00112876733
0.00113098279
0.00113284779
0.00113354122
0.00113395824
0.00113436887
0.00113479186
0.0011352468
0.00113575294
0.00113632796
0.00113698679
0.00113774068
0.000766816872
0.00087266456
0.000930309814
0.00098246299
0.001023854
0.00105409533
0.00107496463
0.00108910739
0.00109887907
0.00110595316
0.00111139041
0.00111580997
0.00111955004
0.00112278713
0.00112561101
0.00112806757
0.00113018217
0.00113197169
0.00113301694
0.00113297713
0.00113293891
0.00113292196
0.00113294772
0.00113303834
0.00113321547
0.00113349887
0.001133905
0.00113444582
0.000767310387
0.00087450451
0.000933599506
0.000987055268
0.00102935202
0.00106003451
0.00108095292
0.00109488528
0.00110430717
0.00111097365
0.00111599228
0.00112000548
0.00112336105
0.0011262379
0.00112872451
0.00113086351
0.00113267594
0.00113400918
0.001133976
0.00113357151
0.0011331762
0.00113281495
0.00113251431
0.0011323015
0.00113220302
0.00113224305
0.00113244174
0.00113281356
0.000767678509
0.00087587419
0.0009360812
0.000990601219
0.00103371073
0.00106487027
0.0010859591
0.00109984233
0.00110908488
0.00111550851
0.00112026256
0.00112401211
0.00112711546
0.001129755
0.00113201871
0.00113394649
0.00113555535
0.00113581393
0.00113514706
0.00113445838
0.00113377668
0.0011331331
0.00113256073
0.00113209356
0.00113176491
0.00113160548
0.00113164105
0.0011318903
0.000767963513
0.000876930962
0.000938010912
0.000993405694
0.00103723253
0.00106886797
0.00109019431
0.00110413153
0.00111330916
0.00111960171
0.00112419446
0.00112777402
0.00113071001
0.00113318972
0.00113530201
0.00113708498
0.00113778324
0.0011370561
0.00113616225
0.00113523201
0.00113430049
0.00113340578
0.00113258874
0.00113189181
0.00113135716
0.00113102423
0.00113092666
0.00113108925
0.00076819083
0.000877770615
0.000939551035
0.000995671773
0.0010401274
0.0010722186
0.00109381683
0.00110787517
0.0011170689
0.0011233131
0.00112782283
0.00113130392
0.00113413721
0.00113651562
0.00113852983
0.00113954507
0.0011390074
0.00113800135
0.00113690035
0.0011357428
0.00113457032
0.00113342875
0.00113236804
0.00113144106
0.00113070135
0.00113019995
0.00112998129
0.00113007883
0.000768376433
0.000878453671
0.000940807286
0.000997537316
0.00104254384
0.00107506218
0.00109694659
0.00111116906
0.00112043689
0.00112669594
0.00113118532
0.00113462737
0.00113741324
0.00113974152
0.00114111935
0.00114085004
0.00113983895
0.00113865937
0.00113735318
0.00113596388
0.00113453966
0.00113313482
0.00113180999
0.00113063088
0.0011296657
0.00112898097
0.00112863604
0.00112867675
0.000768530727
0.000879019739
0.000941850398
0.000999097725
0.0010445884
0.00107750266
0.00109967548
0.00111408877
0.00112347222
0.00112979499
0.00113431538
0.00113776962
0.00114055794
0.00114237423
0.00114246722
0.00114157954
0.0011404345
0.00113907952
0.00113755919
0.00113592119
0.00113421999
0.00113251898
0.00113089109
0.00112941786
0.00112818638
0.00112728404
0.00112679101
0.00112677108
0.000768660711
0.000879495535
0.000942728829
0.00100042007
0.00104633825
0.00107961764
0.00110207406
0.00111669394
0.00112622269
0.00113264724
0.00113724128
0.00114075264
0.00114314606
0.00114372809
0.00114311801
0.00114214354
0.00114086394
0.00113932628
0.0011375759
0.00113566315
0.00113364793
0.00113160288
0.00112961489
0.00112778472
0.00112622382
0.00112504782
0.00112436627
0.00112426933
0.000768771215
0.000879899517
0.000943476435
0.00100155213
0.0010478497
0.0010814651
0.00110419633
0.00111903117
0.00112872629
0.0011352824
0.00113998576
0.00114320918
0.00114446519
0.00114431982
0.00114367549
0.00114261755
0.00114120164
0.00113947175
0.00113747131
0.00113525087
0.00113287401
0.00113042199
0.00112799691
0.00112572257
0.00112374168
0.00112220817
0.00112127357
0.0011210674
0.000768865643
0.000880244699
0.000944117256
0.00100252829
0.00104916398
0.00108308829
0.0011060832
0.00112113615
0.00113101216
0.00113772303
0.00114223206
0.0011444517
0.00114500973
0.00114488368
0.0011442134
0.00114307783
0.00114152594
0.00113959519
0.00113732343
0.00113475771
0.00113196206
0.00112902437
0.0011260622
0.00112322612
0.00112069854
0.00111868548
0.00111739889
0.00111700945
0.000768946441
0.000880540415
0.000944668584
0.00100337349
0.00105031128
0.00108451916
0.00110776503
0.00112303528
0.00113310144
0.00113969558
0.00114335902
0.00114495319
0.00114558018
0.00114548657
0.00114480399
0.00114360229
0.00114192042
0.00113978505
0.00113722333
0.00113427339
0.00113099429
0.00112747613
0.0011238501
0.00112029634
0.00111704663
0.0011143775
0.00111257524
0.00111190633
0.000769015396
0.000880793465
0.000945142988
0.00100410586
0.00105131361
0.00108578098
0.00110926373
0.00112474702
0.00113475641
0.00114067472
0.0011438154
0.00114551961
0.00114623237
0.00114619151
0.0011455186
0.00114427169
0.00114247579
0.00114014177
0.00113727963
0.00113391061
0.00113008
0.00112587186
0.00112142517
0.00111694956
0.00111273594
0.00110915524
0.00110657412
0.00110550172
0.000769073847
0.000881008893
0.000945549711
0.00100473865
0.00105218689
0.00108689029
0.00111059428
0.0011260623
0.00113556465
0.00114108018
0.00114436017
0.00114619315
0.00114701612
0.00114705756
0.00114642754
0.00114516969
0.00114329115
0.00114078102
0.00113762396
0.00113381347
0.0011293678
0.00112435047
0.00111889535
0.00111323494
0.0011077261
0.00110280686
0.00109913403
0.00109741567
0.000769122827
0.000881190535
0.000945895654
0.00100528156
0.00105294253
0.00108785849
0.00111157001
0.0011266874
0.00113591218
0.00114158296
0.00114502089
0.00114700814
0.00114797428
0.00114813846
0.00114759847
0.00114638163
0.00114447354
0.00114183518
0.00113841579
0.00113416697
0.00112906108
0.00112311752
0.00111644006
0.00110926462
0.00110197697
0.00109518248
0.00108987253
0.0010870986
0.000769163173
0.000881341422
0.000946186104
0.00100574183
0.00105358868
0.00108851619
0.00111201163
0.00112697107
0.00113635401
0.00114219685
0.00114581631
0.00114798974
0.00114914065
0.00114947984
0.00114909328
0.00114799126
0.0011461351
0.00114345193
0.00113984513
0.00113520668
0.00112943666
0.00112247507
0.00111435218
0.0011052628
0.00109551635
0.00108609084
0.00107827704
0.0010737376
0.000769195612
0.000881464048
0.000946425279
0.00100611616
0.00105396971
0.00108878597
0.00111222853
0.00112733764
0.00113689255
0.00114292691
0.00114675515
0.00114915199
0.00115053713
0.00115111535
0.00115096289
0.00115007445
0.0011483868
0.00114578965
0.0011421313
0.00113722541
0.00113086714
0.0011228659
0.00111310738
0.0011015254
0.00108858905
0.00107535455
0.00106360919
0.00105601369
0.000769212625
0.000881543256
0.000946563589
0.00100628142
0.00105409111
0.00108893764
0.00111251227
0.00112778136
0.00113752246
0.00114376871
0.00114783472
0.00115049539
0.00115216995
0.00115306107
0.00115323968
0.00115268946
0.0011513266
0.00114900492
0.00114551334
0.00114057216
0.0011338369
0.00112492116
0.00111337024
0.00109886078
0.00108175205
0.00106298597
0.00104480795
0.00103154469
0.000769210339
0.000881556942
0.000946590361
0.00100630041
0.00105418469
0.00108913893
0.00111285241
0.00112829031
0.00113823043
0.00114470764
0.00114903944
0.00115200433
0.00115402543
0.00115530891
0.0011559275
0.00115586267
0.00115502023
0.00115322846
0.00115022408
0.0011456308
0.0011389374
0.00112949053
0.00111615598
0.0010985006
0.00107611405
0.00104946059
0.00102071749
0.000996881969
0.000769202772
0.000881542128
0.000946592417
0.00100634909
0.00105431238
0.00108937785
0.00111323415
0.00112884669
0.00113899523
0.00114571857
0.0011503399
0.00115364505
0.00115606611
0.00115781977
0.00115899033
0.00115957051
0.00115947395
0.00115852682
0.0011564411
0.00115276945
0.00114684144
0.00113741235
0.00112311477
0.00110242046
0.00107355579
0.00103557472
0.000990118533
0.000950434659
0.000769199502
0.000881540135
0.000946612957
0.00100641954
0.00105446298
0.0010896397
0.00111363885
0.00112942729
0.00113978822
0.00114676627
0.0011516929
0.00115536483
0.0011582283
0.00116051814
0.00116234163
0.00116371994
0.00116460047
0.00116484608
0.00116420083
0.00116222569
0.00115814383
0.00115018472
0.00113676378
0.00111479792
0.00107990333
0.001027224
0.000956653011
0.000900405337
0.000769199612
0.000881547792
0.000946646145
0.00100650268
0.00105462376
0.00108990758
0.00111404475
0.00113000449
0.00114057458
0.00114780687
0.00115304296
0.00115709333
0.00116042266
0.00116329067
0.00116583846
0.00116813324
0.00117018523
0.00117194252
0.00117326309
0.00117385477
0.00117283125
0.00116883207
0.00116000944
0.00114249539
0.00110952219
0.00105093941
0.000960595141
0.000881982492
0.000739802648
0.000821720845
0.000884286752
0.000955196441
0.00102016234
0.00107304109
0.00111337469
0.00114347317
0.00116588884
0.00118273127
0.00119562152
0.00120571155
0.00121378124
0.00122035683
0.00122579821
0.00123035573
0.00123420801
0.0012374869
0.00124029325
0.00124270682
0.00124479278
0.00124660583
0.00124819289
0.00124959488
0.00125084791
0.00125198404
0.00125303171
0.00125401607
0.000752948349
0.000758100743
0.000763153617
0.000796315156
0.000843042832
0.000894037383
0.000942834198
0.000986195613
0.00102312849
0.00105382132
0.00107905581
0.00109979936
0.00111694973
0.00113124557
0.00114326528
0.00115345224
0.00116214447
0.00116960181
0.00117602749
0.00118158418
0.00118640527
0.00119060276
0.00119427278
0.00119749944
0.00120035744
0.00120291382
0.00120522908
0.00120735784
0.000770705796
0.000770885223
0.000754230406
0.000761611562
0.000782823461
0.000811820321
0.000843665475
0.00087507305
0.000904267409
0.000930425538
0.000953335725
0.000973161712
0.000990237832
0.00100493785
0.00101761401
0.00102857418
0.0010380772
0.00104633706
0.00105353049
0.00105980469
0.001065284
0.00107007524
0.00107427183
0.00107795685
0.00108120537
0.00108408597
0.00108666185
0.00108899141
0.000779770659
0.00079074458
0.000774250928
0.000776094951
0.00078781656
0.000805266133
0.000825333369
0.000845959824
0.000865985533
0.000884761604
0.000901958877
0.000917477891
0.000931359259
0.000943711647
0.000954670217
0.000964374866
0.000972958849
0.000980543826
0.000987238822
0.000993141068
0.000998337579
0.00100290691
0.00100692077
0.00101044546
0.00101354306
0.00101627224
0.00101868887
0.00102084625
0.000783420139
0.000802128791
0.000790102845
0.000794029277
0.000805254394
0.000819677939
0.000834856986
0.000849621343
0.000863570265
0.000876579922
0.000888613728
0.000899680584
0.000909812925
0.000919051769
0.000927441846
0.000935030583
0.000941867035
0.000948000721
0.000953480828
0.000958355791
0.000962673116
0.000966479412
0.00096982055
0.00097274195
0.000975288832
0.000977506411
0.000979439939
0.000981134588
0.000785373132
0.000808599149
0.000800134724
0.000806889992
0.00081998146
0.000834971201
0.000849341301
0.000862154958
0.00087338203
0.000883271038
0.000892087738
0.00090004679
0.000907298091
0.00091393521
0.000920013412
0.000925566205
0.000930616426
0.000935182724
0.00093928313
0.000942936887
0.000946165261
0.000948991879
0.000951442876
0.000953546987
0.00095533556
0.000956842504
0.000958104102
0.000959158649
0.000786564346
0.000812608469
0.000806645514
0.000815653246
0.000830619278
0.000846905813
0.000861841536
0.000874487128
0.000884925622
0.000893569806
0.000900854852
0.00090714031
0.000912684096
0.000917652049
0.000922142695
0.000926211439
0.00092988843
0.000933190376
0.00093612794
0.000938710141
0.000940946912
0.000942850507
0.000944436384
0.000945723725
0.000946735728
0.000947499702
0.00094804694
0.000948412312
0.000787347414
0.000815279474
0.000811111813
0.000821856173
0.000838377519
0.00085590431
0.000871657165
0.000884672333
0.000895077904
0.000903363744
0.000910050325
0.000915576387
0.000920265053
0.000924331455
0.000927908931
0.000931075752
0.000933875678
0.000936332229
0.000938458098
0.000940261141
0.000941748147
0.000942927217
0.000943809367
0.000944409613
0.000944747723
0.000944848626
0.000944742488
0.000944464385
0.000787901681
0.000817170879
0.000814327515
0.000826427225
0.000844226334
0.000862839171
0.000879397217
0.000892909805
0.000903531615
0.000911803464
0.000918301462
0.000923514694
0.000927807019
0.000931424177
0.000934521313
0.000937191423
0.000939487499
0.000941438131
0.000943058018
0.000944354894
0.000945334013
0.0009460012
0.000946365025
0.000946438419
0.000946141763
0.000945486714
0.000944826258
0.000944193486
0.000788314864
0.000818575095
0.000816736131
0.000829908742
0.000848765734
0.000868323774
0.000885633436
0.000899670567
0.000910601548
0.000919002918
0.000925493051
0.000930599927
0.000934718589
0.000938117592
0.000940967635
0.000943371528
0.000945387713
0.000947046976
0.000948363898
0.000949344467
0.000949991191
0.000950306737
0.000949578597
0.000948637637
0.000947523285
0.000946259459
0.000945206626
0.000944398558
0.000788634957
0.000819657967
0.000818601908
0.000832637073
0.000852376733
0.000872757792
0.000890758831
0.000905318378
0.000916602424
0.000925209932
0.000931790544
0.000936903138
0.000940968552
0.00094427463
0.000947005232
0.000949271199
0.000951134897
0.000952627915
0.000953763282
0.000954543729
0.000954173067
0.000953193586
0.000951332254
0.000949450294
0.000947706012
0.000946152179
0.000944838214
0.000943807492
0.000788890691
0.000820519101
0.000820088551
0.000834828273
0.000855310698
0.000876409698
0.000895041912
0.000910108461
0.000921767171
0.000930629082
0.00093736566
0.000942559492
0.000946652402
0.000949948617
0.000952643521
0.000954855014
0.000956648734
0.000958056409
0.000958806335
0.000958053324
0.000956247847
0.000953973706
0.000951712658
0.000949529678
0.000947491104
0.000945662938
0.000944107994
0.000942882177
0.000789099956
0.000821220679
0.000821300649
0.000836624844
0.00085773831
0.000879465989
0.000898672459
0.000914223714
0.000926265273
0.000935413167
0.000942353381
0.000947686146
0.00095186991
0.00095522244
0.000957948907
0.000960173256
0.000961963726
0.00096241608
0.000961537776
0.000959209035
0.000956727413
0.000954163586
0.000951591007
0.00094908717
0.000946733175
0.00094461154
0.000942802381
0.000941378238
0.000789274316
0.00082180301
0.000822307124
0.00083812309
0.000859777983
0.000882059081
0.000901787809
0.000917798468
0.000930222655
0.000939676939
0.000946856571
0.000952374756
0.000956702947
0.000960169895
0.000962988909
0.000965288935
0.000965639805
0.000964402295
0.000962117969
0.000959556804
0.000956794806
0.000953910203
0.000950987124
0.000948117274
0.000945399531
0.000942937266
0.000940833283
0.000939182616
0.00078942151
0.000822293077
0.000823154626
0.000839389468
0.00086151325
0.000884284351
0.000904488705
0.000920932795
0.000933734259
0.000943507618
0.00095095392
0.000956696012
0.000961215521
0.000964850229
0.000967605002
0.000968318671
0.000966968736
0.000964909415
0.000962431266
0.000959614448
0.000956538111
0.000953287001
0.000949956078
0.000946652992
0.000943498037
0.000940621082
0.000938155032
0.000936225823
0.000789546854
0.000822709414
0.000823875458
0.000840470672
0.000863003825
0.000886211147
0.000906849556
0.000923701608
0.000936871817
0.000946971457
0.000954705328
0.000960703571
0.000965456181
0.000968770213
0.000970040146
0.00096909912
0.000967475985
0.00096527743
0.000962589282
0.00095948919
0.000956056675
0.000952381049
0.000948567539
0.000944741225
0.00094104799
0.000937651455
0.00093472485
0.00093243723
0.00078965408
0.000823065043
0.000824492423
0.000841399982
0.000864292798
0.000887890164
0.000908925388
0.000926160737
0.00093968898
0.000950117964
0.000958155075
0.00096443648
0.000968698182
0.000970672376
0.000970604249
0.000969655935
0.000967962066
0.000965620255
0.000962708034
0.000959296268
0.000955460752
0.000951291894
0.000946903249
0.000942437981
0.000938071978
0.000934011728
0.000930484884
0.000927708757
0.000789745866
0.000823369287
0.000825021878
0.000842201393
0.000865411464
0.000889358483
0.000910756626
0.000928351211
0.000942224954
0.000952982619
0.000961333852
0.000967034341
0.000970134466
0.000971241101
0.000971232107
0.0009702896
0.000968535707
0.000966055006
0.000962911462
0.000959163416
0.000954876978
0.000950137777
0.000945063298
0.000939813527
0.000934598238
0.00092967777
0.000925344285
0.000921905637
0.00078982417
0.000823628957
0.000825475732
0.000842892376
0.000866382621
0.0008906431
0.000912372572
0.000930302416
0.000944507023
0.00095558886
0.000963336084
0.000968071948
0.000970708426
0.000971935203
0.00097200872
0.000971097033
0.000969306728
0.000966704789
0.000963335545
0.000959237208
0.00095445703
0.000949066519
0.000943178534
0.000936964728
0.000930670372
0.000924621759
0.000919178518
0.000914844202
0.000789890463
0.000823849138
0.000825862807
0.000843485773
0.000867222908
0.000891763508
0.000913794003
0.00093203442
0.000946478175
0.000957056404
0.000964039492
0.000968636811
0.000971442627
0.000972820131
0.00097301257
0.000972172289
0.000970387264
0.00096770163
0.000964133125
0.000959690312
0.000954388728
0.000948270866
0.00094142964
0.000934035922
0.000926366171
0.00091878486
0.000911858856
0.000906257566
0.000789945886
0.000824033745
0.000826189791
0.000843991173
0.00086794452
0.000892733658
0.000915035127
0.000933379025
0.000947481595
0.000957485382
0.00096457249
0.000969372083
0.000972380933
0.000973951705
0.000974314505
0.000973605203
0.000971890445
0.000969186835
0.000965477462
0.000960728877
0.00095490869
0.000948008569
0.00094007472
0.000931251829
0.000921807275
0.000912196978
0.000903211095
0.000895774578
0.000789991372
0.000824185929
0.000826461947
0.000844415929
0.000868556545
0.000893563429
0.000915865776
0.000933996352
0.000947765401
0.000957962285
0.000965266274
0.000970300644
0.000973555208
0.000975373818
0.000975974801
0.000975477896
0.000973927123
0.000971308114
0.000967561914
0.000962598774
0.000956317074
0.000948626875
0.000939487079
0.000928967651
0.0009172292
0.000904933772
0.000893039515
0.000882865342
0.000790027715
0.00082430837
0.00082668365
0.00084476598
0.000869002998
0.000894000621
0.000916179619
0.000934217576
0.000948166524
0.000958577165
0.00096612586
0.000971432596
0.000974983009
0.000977115062
0.000978038237
0.000977858644
0.000976599231
0.000974213668
0.000970595759
0.000965587306
0.000958992675
0.00095059844
0.000940215519
0.000927663859
0.000913126484
0.000897210676
0.000881105744
0.000866634249
0.000790033371
0.000824375248
0.000826805873
0.000844927906
0.000869166069
0.000894094347
0.000916338032
0.000934531941
0.00094867645
0.000959321846
0.000967144215
0.000972763357
0.000976664411
0.000979183811
0.000980527236
0.000980792738
0.000979987817
0.000978038587
0.000974792262
0.000970015807
0.000963397217
0.000954553022
0.000942997644
0.000928284066
0.000910140189
0.000889129443
0.000866667979
0.000845162453
0.000790015112
0.000824368794
0.000826810026
0.000844925471
0.000869182165
0.000894196537
0.000916565296
0.000934925465
0.000949279028
0.000960178088
0.000968301256
0.000974271688
0.000978578557
0.000981562575
0.00098343305
0.000984289323
0.000984134812
0.00098288088
0.00098034042
0.000976212153
0.000970058817
0.000961285079
0.00094886803
0.000931692323
0.000909314515
0.000881609218
0.000848995416
0.00081418532
0.000790002264
0.000824339107
0.000826784224
0.00084492692
0.000869240446
0.000894346441
0.000916845759
0.00093537876
0.000949950651
0.000961117504
0.000969563281
0.000975918243
0.000980680664
0.000984202472
0.000986706198
0.000988305754
0.00098901868
0.000988765918
0.000987356826
0.000984456513
0.000979531749
0.000971570161
0.000958820194
0.000939775384
0.00091274207
0.000875852361
0.000827618784
0.000774021264
0.000789995013
0.000824325393
0.000826781342
0.000844956368
0.000869329978
0.000894529419
0.000917160382
0.000935867565
0.000950660821
0.000962102116
0.000970883324
0.000977645343
0.000982900546
0.000987019336
0.000990248192
0.000992731671
0.000994525714
0.000995597577
0.000995808306
0.000994870719
0.000992234573
0.000986325512
0.000974972525
0.000956166244
0.000925721176
0.000878024168
0.000808620818
0.000741519153
0.000789992375
0.000824324324
0.000826795645
0.000845005168
0.000869438567
0.00089472894
0.000917487342
0.000936363599
0.00095137332
0.000963085819
0.000972202847
0.000979378691
0.000985143902
0.000989893601
0.000993908036
0.000997378184
0.00100042424
0.00100310289
0.00100540004
0.00100720251
0.00100798799
0.00100587728
0.000999513043
0.000986117866
0.000959979513
0.000911428911
0.000831014377
0.000760712247
0.000754520185
0.000837736984
0.000885277216
0.000937746601
0.000987161621
0.00102955877
0.00106360385
0.00109017644
0.00111086867
0.00112713057
0.00114010564
0.00115063717
0.00115932137
0.00116657855
0.00117271009
0.00117793617
0.00118242117
0.00118629113
0.00118964545
0.0011925647
0.00119511587
0.001197356
0.00119933456
0.00120109511
0.00120267645
0.00120411333
0.0012054369
0.00120667502
0.0007715013
0.000773525667
0.000758520967
0.000767401869
0.000789781702
0.000819505929
0.000851605159
0.0008828531
0.000911596332
0.000937141857
0.000959383679
0.000978558393
0.000995043016
0.00100923135
0.00102148129
0.00103209843
0.00104133557
0.00104939944
0.00105645957
0.00106265657
0.001068109
0.00107291867
0.00107717457
0.00108095578
0.00108433354
0.0010873726
0.00109013222
0.00109266665
0.000791453635
0.000787120518
0.000747908938
0.000730792453
0.00072839565
0.000736329996
0.000750601105
0.000768065482
0.000786667755
0.000805114635
0.000822620509
0.000838778408
0.000853440902
0.000866612781
0.000878378215
0.000888856803
0.000898177643
0.000906465473
0.000913834781
0.000920388364
0.000926217972
0.00093140579
0.000936026085
0.000940146727
0.000943830438
0.000947135735
0.000950117568
0.000952827688
0.00080136428
0.000808449831
0.000768050845
0.000744582564
0.00073283517
0.000729876385
0.000733014107
0.000739979089
0.000749198437
0.00075960192
0.000770434985
0.000781187014
0.000791538989
0.000801307007
0.000810397499
0.00081877627
0.000826446442
0.000833432907
0.000839772242
0.000845506631
0.00085068041
0.000855338257
0.00085952436
0.000863282162
0.000866654368
0.000869683035
0.000872409635
0.000874875029
0.000805282102
0.00082072387
0.000784167007
0.000761966736
0.000749420548
0.000743739166
0.000742670179
0.000744521343
0.000748236078
0.000753149753
0.000758792183
0.000764818411
0.000770979499
0.000777096955
0.000783044089
0.000788734116
0.000794110983
0.000799141558
0.000803809392
0.000808110082
0.0008120479
0.000815633427
0.000818881945
0.000821812398
0.00082444672
0.000826809368
0.000828926957
0.0008308279
0.000807383126
0.000827653754
0.000794252551
0.000774203893
0.00076307095
0.000757939733
0.000756455352
0.000756994245
0.000758676031
0.000761056486
0.000763886687
0.000767009782
0.000770316075
0.000773718566
0.000777142811
0.000780525033
0.000783812263
0.000786962114
0.000789942065
0.000792728513
0.000795305722
0.000797664813
0.000799802891
0.000801722358
0.000803430372
0.0008049384
0.00080626181
0.000807419427
0.000808667371
0.000831928341
0.000800749128
0.000782418895
0.000772685774
0.000768639523
0.000767827203
0.000768564301
0.000769971355
0.000771652457
0.000773439883
0.000775272211
0.00077713173
0.000779009699
0.000780892543
0.000782760127
0.000784588112
0.000786350802
0.000788023502
0.000789584213
0.000791014684
0.000792300985
0.000793433805
0.000794408592
0.000795225593
0.000795889808
0.00079641085
0.000796802658
0.00080951317
0.000834774882
0.000805193553
0.000788188333
0.000779586414
0.000776507203
0.000776459503
0.000777720587
0.000779397761
0.00078110108
0.000782684105
0.000784118584
0.000785425753
0.000786635942
0.000787771164
0.00078884144
0.000789846402
0.000790778279
0.000791624945
0.000792372516
0.000793007361
0.000793517578
0.00079389409
0.000794131475
0.000794228567
0.000794188883
0.000794020819
0.000793737605
0.00081011357
0.000836791668
0.000808388172
0.000792420208
0.000784740012
0.000782477806
0.000783118661
0.000784915682
0.000786969825
0.000788897307
0.000790564436
0.000791959823
0.000793123388
0.00079410393
0.000794940549
0.000795658343
0.000796269661
0.000796776955
0.000797175903
0.000797458234
0.00079761406
0.000797633737
0.000797509395
0.000797236184
0.000796813307
0.000796244822
0.000795540145
0.000794714222
0.000810561799
0.00083828914
0.000810777836
0.000795633213
0.000788715331
0.000787152063
0.000788405791
0.000790707012
0.000793148905
0.000795352369
0.000797194914
0.000798679152
0.000799859257
0.000800796874
0.000801541853
0.000802127887
0.000802573906
0.000802887123
0.000803066387
0.000803105247
0.000802994543
0.000802724574
0.000802286958
0.000801676259
0.000800891399
0.00079993683
0.000798823373
0.000797568619
0.000810909089
0.000839443664
0.000812627121
0.000798145518
0.000791863739
0.000790903023
0.000792704206
0.000795475602
0.000798299527
0.000800797326
0.000802854051
0.000804483399
0.000805751484
0.000806730873
0.000807480383
0.000808040443
0.000808434568
0.000808672614
0.000808754396
0.000808673036
0.000808417878
0.000807977016
0.000807339551
0.000806497659
0.000805436548
0.000803744292
0.000802053172
0.000800391759
0.000811186394
0.000840361326
0.000814099506
0.000800160048
0.0007944136
0.000793974893
0.000796265664
0.000799473589
0.000802668544
0.000805468794
0.00080776307
0.000809572702
0.00081097302
0.000812045557
0.000812856755
0.000813452812
0.000813860999
0.000814092963
0.000814148473
0.000814019
0.000813690937
0.000813148468
0.000811452712
0.000809633772
0.000807732497
0.000805359809
0.000803171419
0.000801209584
0.000811413095
0.000841108413
0.000815299158
0.000801809806
0.000796518165
0.000796534153
0.000799263463
0.000802875389
0.0008064272
0.000809532068
0.00081207955
0.000814095685
0.000815662453
0.000816868344
0.000817785953
0.000818466197
0.000818939303
0.000819217957
0.000819301034
0.000819118459
0.000817540382
0.000815797637
0.000812982203
0.000810166483
0.000807435049
0.000804845103
0.000802453603
0.000800314509
0.000811601782
0.000841727961
0.000816294563
0.00080318413
0.000798282628
0.00079869715
0.000801820402
0.000805805764
0.000809698686
0.000813106417
0.000815917527
0.000818160717
0.000819922647
0.000821297055
0.000822361395
0.000823170283
0.000823756069
0.000824131651
0.000823190349
0.00082168048
0.000818779819
0.000815767352
0.000812700247
0.000809640119
0.000806653412
0.000803810376
0.000801182637
0.000798839382
0.000811760924
0.000842248819
0.000817131976
0.000804344334
0.000799780537
0.0008005466
0.000804024989
0.000808355687
0.000812573599
0.000816279926
0.000819361402
0.000821848168
0.000823830129
0.000825405164
0.000826654673
0.000827636163
0.000827859976
0.000826929311
0.000824602721
0.000821732461
0.000818650021
0.000815412517
0.000812082793
0.000808731415
0.000805437337
0.000802286808
0.000799370265
0.000796777109
0.000811896354
0.000842690826
0.000817843372
0.000805333315
0.000801064095
0.000802142013
0.000805941705
0.000810592145
0.000815119097
0.000819118164
0.000822474115
0.000825217792
0.000827441709
0.000829247386
0.000830719587
0.000830770021
0.000829711485
0.000827378151
0.000824672287
0.00082164648
0.000818353931
0.000814853044