/*--------------------------------*- C++ -*----------------------------------*\
| =========                 |                                                 |
| \\      /  F ield         | foam-extend: Open Source CFD                    |
|  \\    /   O peration     | Version:     4.1                                |
|   \\  /    A nd           | Web:         http://www.foam-extend.org         |
|    \\/     M anipulation  |                                                 |
\*---------------------------------------------------------------------------*/
FoamFile
{
    version     2.0;
    format      ascii;
    class       volVectorField;
    location    "0.45";
    object      U;
}
// * * * * * * * * * * * * * * * * * * * * * * * * * * * * * * * * * * * * * //

dimensions      [0 1 -1 0 0 0 0];

internalField   nonuniform List<vector> 
35840
(
(3.94086025 0.268528666 0.261844387)
(3.20795332 0.37183191 0.357379755)
(2.43829562 0.266507346 0.249860602)
(1.72034673 0.156945468 0.141978462)
(1.2936673 0.0888174893 0.0772231628)
(1.05218021 0.0517254781 0.0439391533)
(0.893421553 0.031205801 0.0270971218)
(0.785209535 0.0189942319 0.0180817655)
(0.711684326 0.0115225543 0.0131445252)
(0.660031531 0.00694714575 0.0104220299)
(0.622045363 0.00409237935 0.00881381164)
(0.593060394 0.00225984154 0.0077351767)
(0.57029235 0.00105928023 0.00691480087)
(0.551984813 0.000263098921 0.00623083794)
(0.537003972 -0.000268004611 0.00562858229)
(0.524593827 -0.000620299194 0.00508445673)
(0.51422462 -0.000847706927 0.00458838974)
(0.505503091 -0.000985386366 0.00413494059)
(0.498130702 -0.0010566914 0.00372029817)
(0.491866709 -0.00107663054 0.00334127544)
(0.486511369 -0.00105538219 0.00299484744)
(0.481895174 -0.00100046538 0.00267828724)
(0.477871516 -0.000917817963 0.00238931986)
(0.474312089 -0.000812390977 0.00212611979)
(0.471103819 -0.000688620778 0.00188728675)
(0.468146974 -0.000550753512 0.00167179995)
(0.465354087 -0.000403013526 0.0014789483)
(0.462649478 -0.000249637518 0.00130824476)
(4.52124946 0.409953683 0.331399938)
(4.20224557 0.638137964 0.509000226)
(3.63676187 0.543497913 0.407274665)
(2.94289153 0.391292779 0.26150528)
(2.41564655 0.26750633 0.152218531)
(2.06112194 0.181549172 0.0859703154)
(1.80859076 0.12404299 0.0502552731)
(1.62432548 0.0850791422 0.0317464267)
(1.49025676 0.0584769096 0.0220750092)
(1.39082258 0.0403401403 0.0169184748)
(1.31478459 0.0278939637 0.0140012487)
(1.255117 0.019227534 0.0121441382)
(1.20732154 0.0130939869 0.0107984983)
(1.16836829 0.0086830749 0.00972445509)
(1.13617939 0.00546433898 0.00881325674)
(1.10930204 0.00309079032 0.00801275663)
(1.08668521 0.00133472927 0.00729626486)
(1.06754217 4.42221954e-05 0.00664825496)
(1.05125644 -0.00088390026 0.0060577815)
(1.03733372 -0.00152085336 0.00551589527)
(1.02536885 -0.00191744844 0.00501511428)
(1.01502103 -0.00211131806 0.00454952357)
(1.00599621 -0.00213181263 0.00411468933)
(0.998037612 -0.00200333881 0.00370738398)
(0.990918995 -0.00174754171 0.00332541783)
(0.984440216 -0.00138476971 0.00296751313)
(0.978424543 -0.00093497482 0.00263316693)
(0.97271724 -0.000418142954 0.00232248372)
(4.44213353 0.221362017 0.337951987)
(4.08278417 0.436517672 0.518819245)
(3.65713722 0.463118494 0.418089488)
(3.13712316 0.408857694 0.27588927)
(2.71978416 0.331892732 0.166458212)
(2.42182211 0.257603354 0.0961052205)
(2.19810392 0.195674603 0.0564756)
(2.02635953 0.147052784 0.0358946674)
(1.89486117 0.109798359 0.0253561154)
(1.79245142 0.0816551017 0.0198186137)
(1.71057884 0.060549013 0.0166873837)
(1.64381772 0.0447284935 0.0146481248)
(1.58862223 0.0328166795 0.0131028413)
(1.54248742 0.0237776268 0.0118127247)
(1.5035937 0.0168552587 0.0106856527)
(1.47059401 0.011511664 0.00968334649)
(1.44245986 0.00737022474 0.00878683693)
(1.41838176 0.00416871266 0.00798299203)
(1.39770558 0.00172373508 0.00725968776)
(1.37989223 -9.51594209e-05 0.00660508923)
(1.36448436 -0.00138277462 0.00600810637)
(1.35109053 -0.00221045955 0.0054589653)
(1.3393695 -0.00263442659 0.00494962862)
(1.3290196 -0.00270191066 0.00447385572)
(1.31977195 -0.0024554707 0.00402707415)
(1.31138606 -0.00193586315 0.00360621032)
(1.30364711 -0.00118386231 0.00320948755)
(1.29636457 -0.000241242451 0.00283618719)
(4.41370729 0.123370499 0.337929221)
(3.97527196 0.285997139 0.516843479)
(3.52614295 0.346944578 0.410945118)
(3.04826626 0.341766426 0.267056293)
(2.69650413 0.304733195 0.158688542)
(2.4604954 0.256427687 0.0893123256)
(2.28810512 0.208543093 0.0503495468)
(2.15601444 0.166262185 0.0306491518)
(2.0535724 0.130864202 0.0211774982)
(1.97171036 0.102028074 0.0166840054)
(1.90394045 0.0789049885 0.0144668235)
(1.84656655 0.0605184862 0.0131685586)
(1.79742659 0.0459412628 0.0121798061)
(1.75506519 0.0343730793 0.0112807782)
(1.71841906 0.0251649443 0.0104147747)
(1.686667 0.0178141702 0.00957958325)
(1.65913733 0.0119439769 0.00878618943)
(1.63525826 0.00727788006 0.0080440717)
(1.61453288 0.00361502485 0.0073570505)
(1.59652418 0.0008094409 0.00672382019)
(1.58084354 -0.00124660809 0.00613979481)
(1.56714255 -0.00263545583 0.00559918946)
(1.5551064 -0.00342308566 0.00509601302)
(1.54444868 -0.00366627512 0.00462481232)
(1.5349079 -0.0034180336 0.00418111627)
(1.52624532 -0.00273137314 0.00376160566)
(1.51824398 -0.00166173226 0.00336411253)
(1.51070856 -0.000268268183 0.00298751292)
(4.40562826 0.0838881254 0.338530283)
(3.92709383 0.205874985 0.518667405)
(3.4345832 0.264641082 0.409525866)
(2.94273909 0.274647574 0.261033925)
(2.60543129 0.257678196 0.150311448)
(2.39688071 0.227978906 0.0806001499)
(2.25546429 0.194224964 0.0421476059)
(2.15329621 0.161496729 0.0232702275)
(2.07740185 0.132075513 0.0147414619)
(2.01793413 0.106612045 0.0111885039)
(1.96848856 0.0850353643 0.00984697229)
(1.92581382 0.0669848021 0.00933250969)
(1.88832549 0.0519980437 0.00901984492)
(1.85515778 0.0396059932 0.00868483007)
(1.82577874 0.0293826452 0.00827843177)
(1.79981084 0.0209672826 0.00781265983)
(1.77693534 0.0140690946 0.0073144241)
(1.75685237 0.00846178739 0.00680838755)
(1.73927034 0.00397349056 0.00631166982)
(1.72390486 0.00047542559 0.00583380291)
(1.71048079 -0.00212968039 0.00537873213)
(1.69873341 -0.00391734661 0.00494725308)
(1.68840866 -0.00494943986 0.0045381598)
(1.67926415 -0.00528129487 0.00414935069)
(1.67106987 -0.00496738782 0.00377863636)
(1.66360926 -0.00406553654 0.00342419059)
(1.6566807 -0.00263973204 0.0030847698)
(1.6500995 -0.000761635082 0.00275978674)
(4.40178188 0.061358125 0.339164624)
(3.90241856 0.15322508 0.520513355)
(3.38074584 0.204412584 0.410098418)
(2.86922081 0.221084809 0.258747607)
(2.52751408 0.215754853 0.145979171)
(2.32478191 0.198093385 0.0755292207)
(2.19490214 0.17465157 0.0370216955)
(2.10724596 0.14981184 0.018339624)
(2.04673583 0.126012099 0.0101164304)
(2.00216977 0.104319948 0.00691316888)
(1.96645825 0.0850800643 0.00592977332)
(1.93605986 0.0682955725 0.00577172812)
(1.90932689 0.0538099913 0.00580768858)
(1.88546891 0.0414013776 0.00580466384)
(1.86410395 0.0308351505 0.00570611403)
(1.84503255 0.0218927033 0.00552008479)
(1.82811316 0.014384985 0.00527254569)
(1.8132069 0.00815685004 0.00498933033)
(1.80016056 0.00308585014 0.00469005869)
(1.78880359 -0.00092230391 0.00438730357)
(1.77895401 -0.00394031847 0.00408843326)
(1.77041844 -0.00602551147 0.00379731577)
(1.76299826 -0.00722663546 0.00351533654)
(1.75649261 -0.00759034716 0.00324252714)
(1.75070177 -0.0071667025 0.00297836088)
(1.74543068 -0.00601357669 0.00272222051)
(1.74049277 -0.00419981851 0.00247367144)
(1.73571398 -0.00180691974 0.00223260824)
(4.3995685 0.0466864437 0.339653422)
(3.88830558 0.117719144 0.521953388)
(3.34832217 0.161235167 0.411268836)
(2.82104171 0.180137065 0.258565464)
(2.47122761 0.181408554 0.144562906)
(2.26669 0.171525231 0.073500344)
(2.13925429 0.155429719 0.0347870814)
(2.05693644 0.136690482 0.0160491219)
(2.00345305 0.117550123 0.00782517618)
(1.96667006 0.0992160304 0.00464291689)
(1.9389143 0.082262919 0.00368829719)
(1.91629008 0.066918606 0.00357052616)
(1.89693466 0.0532256153 0.00366531047)
(1.87994275 0.0411323594 0.00374050158)
(1.86489077 0.0305458098 0.00373576162)
(1.85158615 0.0213616238 0.00365416841)
(1.83992279 0.0134808003 0.00351708135)
(1.82981131 0.00681805691 0.00334658623)
(1.82115205 0.00130491437 0.00315957586)
(1.81382624 -0.00311142179 0.00296698403)
(1.80769697 -0.0064709826 0.0027754481)
(1.80260861 -0.00880508525 0.00258840633)
(1.79839179 -0.0101424119 0.00240712683)
(1.79486673 -0.0105148129 0.00223170329)
(1.79184742 -0.00996276146 0.00206169677)
(1.78914636 -0.00854012929 0.00189651175)
(1.78657996 -0.00631777367 0.00173562036)
(1.78397441 -0.00338545616 0.00157869043)
(4.3982177 0.0366443819 0.340042949)
(3.87961893 0.0929705765 0.523109348)
(3.32763071 0.129544954 0.412495403)
(2.78862447 0.148157456 0.259132777)
(2.43115798 0.152908748 0.144407997)
(2.22291976 0.148075904 0.072950491)
(2.09466824 0.137266265 0.0341029203)
(2.01365571 0.123255892 0.0153188451)
(1.96290601 0.107952718 0.00705873403)
(1.92971434 0.0925372197 0.0038296067)
(1.90602744 0.0776878948 0.00281362707)
(1.88770392 0.0637690516 0.00262807902)
(1.87271358 0.0509579165 0.00266087413)
(1.86003775 0.0393251842 0.00268802184)
(1.8491813 0.0288842314 0.00265216891)
(1.83991184 0.0196209326 0.0025562648)
(1.83210624 0.0115116942 0.00242001956)
(1.82567344 0.00453393385 0.00226322341)
(1.82052048 -0.00132878331 0.00210035031)
(1.81654146 -0.00608575922 0.00194045391)
(1.8136094 -0.00973986835 0.00178860099)
(1.81157814 -0.0122912902 0.00164681526)
(1.81028332 -0.0137428795 0.00151530224)
(1.80954515 -0.014105949 0.00139333858)
(1.8091725 -0.0134062688 0.00127978701)
(1.80896831 -0.0116896264 0.00117340448)
(1.80873626 -0.00902619277 0.00107299556)
(1.80828854 -0.00551294687 0.000977486842)
(4.39732407 0.0293678687 0.340349583)
(3.8738982 0.0747849491 0.524005287)
(3.31375131 0.105390676 0.413535786)
(2.76612792 0.122588115 0.259832638)
(2.40224295 0.12895208 0.144688318)
(2.19009889 0.127294764 0.0729971763)
(2.05994045 0.120191093 0.034083421)
(1.97857525 0.109749481 0.0152892393)
(1.9285919 0.0975254365 0.00701627276)
(1.89690637 0.0845817667 0.00375596227)
(1.87520087 0.0716077467 0.00268787826)
(1.85916071 0.0590322773 0.00243456627)
(1.84663838 0.0471145997 0.00239354688)
(1.83653438 0.0360090608 0.00234918436)
(1.82829883 0.0258074282 0.00224916559)
(1.82166401 0.0165661528 0.00209886957)
(1.81648579 0.00832416387 0.00191881454)
(1.81266188 0.00111413463 0.00172859397)
(1.81009493 -0.00503157997 0.00154207922)
(1.80867609 -0.0100781803 0.00136769244)
(1.80827667 -0.0139887515 0.00120960307)
(1.80874609 -0.016728043 0.00106903179)
(1.80991138 -0.0182676681 0.000945529833)
(1.81157902 -0.0185926311 0.000837799497)
(1.81353873 -0.0177086141 0.00074414646)
(1.8155695 -0.0156490399 0.000662782788)
(1.81744781 -0.0124807701 0.000591912186)
(1.81895773 -0.0083074198 0.000529727271)
(4.39669965 0.0238510062 0.340586909)
(3.8699407 0.0608822968 0.524691514)
(3.30406862 0.0864649144 0.414370142)
(2.75006427 0.101805809 0.2604843)
(2.38096982 0.108635844 0.145087987)
(2.16521408 0.10883047 0.073251412)
(2.03284384 0.104214532 0.0342990481)
(1.95042816 0.0963675677 0.0155058032)
(1.90028135 0.0865245117 0.00723283854)
(1.86906034 0.0755947398 0.00395925601)
(1.84825372 0.0642216247 0.00286158097)
(1.83341315 0.0528459815 0.00256449216)
(1.82229979 0.0417664439 0.00247108396)
(1.81375214 0.0311881366 0.00237134467)
(1.80717929 0.0212567739 0.00221689894)
(1.80228762 0.0120819621 0.00201548101)
(1.79891805 0.00375346738 0.00178889696)
(1.7969604 -0.00364799955 0.00155733908)
(1.79631386 -0.0100442508 0.00133510043)
(1.79686653 -0.0153563264 0.00113070666)
(1.79848583 -0.0195052267 0.000948167199)
(1.80101306 -0.0224156369 0.000788604209)
(1.80426119 -0.0240219749 0.000651537506)
(1.80801556 -0.0242764558 0.000535652311)
(1.81203729 -0.0231584 0.000439164638)
(1.81606995 -0.0206836889 0.000360038738)
(1.8198496 -0.0169128344 0.000296183006)
(1.82311798 -0.0119560837 0.000245562095)
(4.39624702 0.0195238914 0.34076992)
(3.86709668 0.0499177448 0.525218878)
(3.29707959 0.0712701029 0.415029083)
(2.73827559 0.0846365742 0.261039271)
(2.36499235 0.0912526353 0.145482873)
(2.14606116 0.092399322 0.0735499877)
(2.01148897 0.0893705312 0.0345703351)
(1.9277359 0.0833390808 0.0157777188)
(1.87695394 0.0752683726 0.0075064339)
(1.84562971 0.0659119071 0.00422660675)
(1.825114 0.0558399693 0.00311223447)
(1.81085605 0.0454723178 0.00278879211)
(1.80054333 0.0351164085 0.00266237951)
(1.79296356 0.0250024433 0.00252623154)
(1.7874925 0.0153097569 0.00233434265)
(1.78381653 0.00618594809 0.00209590211)
(1.78176625 -0.00223909029 0.00183354038)
(1.781228 -0.00984311943 0.00156809824)
(1.7821006 -0.016504835 0.00131437832)
(1.78427268 -0.0221010227 0.00108103448)
(1.78760929 -0.0265075197 0.000872264006)
(1.79194373 -0.0296033897 0.000689480499)
(1.79707313 -0.0312784435 0.000532429399)
(1.80275698 -0.031443659 0.000399951972)
(1.80871971 -0.0300436208 0.00029048155)
(1.81465801 -0.0270696689 0.000202252559)
(1.82025325 -0.0225718208 0.000133378368)
(1.82518901 -0.0166670495 8.18454041e-05)
(4.39590834 0.0160377188 0.340911442)
(3.86498408 0.0410473272 0.525626996)
(3.29187702 0.0588121186 0.415547918)
(2.72939439 0.0702458593 0.261495224)
(2.35273567 0.0762673283 0.145832248)
(2.13106905 0.0777721551 0.0738333538)
(1.99443083 0.0756817716 0.0348329139)
(1.90924767 0.0708626459 0.0160383185)
(1.85758452 0.0640573736 0.00776633151)
(1.82582235 0.0558766983 0.00448113545)
(1.80521951 0.0468087803 0.00335505794)
(1.79115113 0.0372340279 0.00301400929)
(1.78124841 0.0274485118 0.00286582433)
(1.77425907 0.0176886927 0.00270557383)
(1.76953279 0.00815150269 0.00248852367)
(1.76674118 -0.000990317356 0.00222453642)
(1.76570903 -0.00957608622 0.00193672676)
(1.7663236 -0.0174476882 0.00164638285)
(1.76848817 -0.0244432423 0.00136838983)
(1.7720958 -0.0303945146 0.00111149577)
(1.7770126 -0.0351279342 0.000880062393)
(1.78306601 -0.0384696913 0.000675728652)
(1.79003667 -0.0402551566 0.000498540508)
(1.79765423 -0.0403424811 0.000347748738)
(1.80559809 -0.0386296319 0.000222238882)
(1.81350486 -0.0350731634 0.000120707985)
(1.82098354 -0.0297060945 4.1694521e-05)
(1.8276387 -0.0226513461 -1.64996581e-05)
(4.39564758 0.0131697094 0.341021725)
(3.86336754 0.033726631 0.525946279)
(3.28789249 0.0484259973 0.415958915)
(2.72253087 0.0580420039 0.261866201)
(2.34312537 0.0632715303 0.146129316)
(2.11911355 0.0647513263 0.0740838648)
(1.98058532 0.0631410303 0.0350672262)
(1.89397372 0.0590788057 0.016268799)
(1.84130423 0.0531313613 0.00799380821)
(1.80889703 0.0457849487 0.00470267888)
(1.78795264 0.0374462403 0.00356673841)
(1.77379675 0.0284474981 0.00321224944)
(1.76402119 0.0190607585 0.00304816465)
(1.75734555 0.00951538957 0.00287062082)
(1.75310192 1.33543102e-05 0.00263548779)
(1.75095389 -0.00925816944 0.00235301416)
(1.75072701 -0.0181157321 0.00204664101)
(1.75231577 -0.0263706032 0.00173763479)
(1.75563416 -0.0338225445 0.00144073163)
(1.76058612 -0.0402567424 0.00116466179)
(1.76704485 -0.0454447495 0.000913874777)
(1.77483636 -0.0491503972 0.000690185352)
(1.78372641 -0.0511414308 0.000493935216)
(1.79341172 -0.051207202 0.000324801045)
(1.80351748 -0.0491819134 0.000182197317)
(1.81360389 -0.0449715772 6.54538867e-05)
(1.82318417 -0.0385811741 -2.62009441e-05)
(1.83175513 -0.030136745 -9.38259922e-05)
(4.39544147 0.0107727689 0.341108759)
(3.86209614 0.0275934003 0.526199733)
(3.28475719 0.0396562964 0.416288361)
(2.7170914 0.0475991918 0.262168924)
(2.33541784 0.0519508961 0.146378734)
(2.10938611 0.0531666511 0.0742995312)
(1.96914296 0.0517196874 0.0352703219)
(1.8811462 0.0480780502 0.0164674692)
(1.82741017 0.0426694108 0.00818834201)
(1.79422396 0.0358739541 0.0048910313)
(1.77275536 0.0280219822 0.00374630975)
(1.75830031 0.0193943723 0.00338075777)
(1.74842651 0.0102314346 0.00320409021)
(1.74183699 0.000745705162 0.00301303489)
(1.73785566 -0.00886593347 0.00276387134)
(1.73614698 -0.0184109253 0.00246719915)
(1.73654578 -0.0276905637 0.00214638786)
(1.73896233 -0.0364908836 0.00182236883)
(1.74333079 -0.0445754334 0.00150967976)
(1.74957623 -0.05168098 0.00121694178)
(1.75758899 -0.05751762 0.000948591032)
(1.76720226 -0.0617748892 0.000706537574)
(1.77817212 -0.0641354528 0.000491350077)
(1.79016172 -0.0642976105 0.000303100348)
(1.80273279 -0.0620067517 0.000141817973)
(1.81534916 -0.0570940529 7.67471787e-06)
(1.82739707 -0.0495179413 -9.90827306e-05)
(1.83822522 -0.0394005863 -0.000178459211)
(4.39527448 0.00874687352 0.341178637)
(3.86106978 0.0223997654 0.526404522)
(3.28222479 0.0321846273 0.416556584)
(2.71267159 0.0386083072 0.262418438)
(2.32909183 0.0420647795 0.146588351)
(2.10130176 0.0428760999 0.0744840348)
(1.95949937 0.0413799028 0.03544517)
(1.87017362 0.0379164203 0.01663812)
(1.81534341 0.032803222 0.00835465674)
(1.78128545 0.0263307975 0.00505143611)
(1.75915197 0.0187596178 0.00389895465)
(1.74422403 0.0103187639 0.00352405581)
(1.73405751 0.00121181146 0.00333694179)
(1.72734926 -0.00837318209 0.00313483778)
(1.723425 -0.0182528704 0.00287451187)
(1.72195982 -0.0282379064 0.00256652345)
(1.72280759 -0.0381223098 0.00223379413)
(1.7259058 -0.0476730081 0.00189691538)
(1.73122206 -0.0566203831 0.00157017638)
(1.73871738 -0.0646514521 0.00126199753)
(1.74831498 -0.0714076605 0.000976655158)
(1.75987019 -0.0764897872 0.000716001491)
(1.77314089 -0.0794727989 0.000480726527)
(1.78776077 -0.0799333819 0.000271254091)
(1.80322046 -0.0774917351 8.8300909e-05)
(1.81886402 -0.0718667261 -6.68642428e-05)
(1.83390927 -0.062939204 -0.000192497398)
(1.84749937 -0.0508124311 -0.00028688706)
(4.39513597 0.00702234042 0.34123594)
(3.86022043 0.0179722582 0.526573359)
(3.28012704 0.0257846439 0.416778957)
(2.70899104 0.0308432626 0.262627077)
(2.32377781 0.0334298061 0.146766045)
(2.09443497 0.0337643812 0.0746425294)
(1.95120317 0.0320833564 0.0355962894)
(1.86060257 0.0286294807 0.0167856344)
(1.80466418 0.0236322882 0.00849814624)
(1.76966325 0.0173061177 0.00518959755)
(1.74674751 0.00984794066 0.0040303549)
(1.73119326 0.00143549427 0.00364742416)
(1.72055374 -0.00776825326 0.00345153221)
(1.71352886 -0.0176060455 0.0032406088)
(1.70945527 -0.0279162128 0.00297148084)
(1.70802787 -0.0385219791 0.00265423273)
(1.70913085 -0.0492194761 0.00231136581)
(1.71274286 -0.0597645698 0.00196315335)
(1.71888198 -0.0698597595 0.00162352233)
(1.72756566 -0.0791428577 0.00130050876)
(1.73877327 -0.0871800568 0.00099805558)
(1.75240639 -0.0934670413 0.000717761241)
(1.76824598 -0.0974427663 0.000460233801)
(1.78590924 -0.0985210598 0.000226112548)
(1.80481308 -0.0961444519 1.68214569e-05)
(1.82415586 -0.0898616983 -0.000164965653)
(1.84293246 -0.0794240893 -0.00031529438)
(1.85999794 -0.0648857425 -0.000429677189)
(4.39501857 0.00554961714 0.341284074)
(3.85950098 0.0141870978 0.5267156)
(3.2783471 0.0202929518 0.416966941)
(2.70585289 0.0241373942 0.262804469)
(2.31921181 0.0259067253 0.146918582)
(2.08847549 0.0257402763 0.0747799585)
(1.9439181 0.0237966416 0.0357280805)
(1.8520879 0.0202427209 0.016914494)
(1.7950304 0.015236549 0.00862347554)
(1.75902485 0.00892706792 0.00531022245)
(1.73522045 0.00145290195 0.00414500201)
(1.71889479 -0.00705928582 0.00375518848)
(1.70760526 -0.0164902649 0.00355238893)
(1.70006167 -0.0267198122 0.00333473819)
(1.69561834 -0.0376170427 0.00305864095)
(1.69399881 -0.0490287878 0.00273377789)
(1.69512925 -0.060765133 0.00238234413)
(1.69904514 -0.0725824768 0.00202415954)
(1.70583602 -0.0841648988 0.00167262326)
(1.71560274 -0.0951056833 0.00133521334)
(1.7284137 -0.10489211 0.00101530392)
(1.74425367 -0.112898393 0.0007139445)
(1.76296326 -0.118393838 0.000431317775)
(1.78417148 -0.12057514 0.000167965818)
(1.80723015 -0.118632285 -7.41058436e-05)
(1.83116719 -0.111854961 -0.000290506089)
(1.85468392 -0.0997777349 -0.000474063601)
(1.8762271 -0.0823470361 -0.000615906677)
(4.39491709 0.00429278289 0.341325539)
(3.85887848 0.010954325 0.526838072)
(3.27680311 0.0155898101 0.417128973)
(2.70311815 0.0183667578 0.262957903)
(2.31520509 0.0193899374 0.147051368)
(2.08319797 0.0187331438 0.0749004829)
(1.93739586 0.0164936624 0.0358442518)
(1.84437047 0.012778083 0.0170283217)
(1.78618097 0.00768531518 0.00873419519)
(1.74911179 0.00130698622 0.00541661904)
(1.72431564 -0.00627285581 0.00424613426)
(1.7070748 -0.0149782188 0.00385102785)
(1.69495427 -0.0247368504 0.00364316794)
(1.68667678 -0.0354728255 0.0034203823)
(1.681619 -0.0470966762 0.00313881087)
(1.67954016 -0.0594921748 0.00280789555)
(1.68041938 -0.0724990945 0.00244939893)
(1.6843654 -0.0858913593 0.00208257856)
(1.69156337 -0.0993509385 0.00172016946)
(1.70223155 -0.112438941 0.00136889754)
(1.71657212 -0.124567076 0.00103128073)
(1.73470753 -0.134975585 0.000707412535)
(1.75659762 -0.142727571 0.000396518601)
(1.78193753 -0.146734014 9.84572391e-05)
(1.81004559 -0.145827404 -0.000184605794)
(1.83976429 -0.138902037 -0.000446418825)
(1.86941335 -0.125129383 -0.000675434638)
(1.89685769 -0.10423598 -0.000855687903)
(4.39482788 0.00322524598 0.341362138)
(3.85832994 0.00820721786 0.526945691)
(3.27543788 0.0115858841 0.417271162)
(2.70068919 0.0134379527 0.263092754)
(2.31162388 0.0137989281 0.147168509)
(2.07844111 0.0126888467 0.0750073424)
(1.93145685 0.0101557174 0.0359476518)
(1.83726103 0.006257265 0.0171297268)
(1.77792309 0.00104228221 0.00883257334)
(1.73973083 -0.00544883954 0.0055110238)
(1.71384039 -0.0131831302 0.00433664012)
(1.69553867 -0.0221351046 0.0039378485)
(1.6823973 -0.032283715 0.00372620764)
(1.67315185 -0.0436055693 0.00349952454)
(1.66720267 -0.0560646949 0.00321386219)
(1.66434857 -0.0695982769 0.00287833481)
(1.66462975 -0.084096575 0.00251419704)
(1.66824355 -0.0993755954 0.00214005686)
(1.67549688 -0.1151418 0.0017678803)
(1.68676579 -0.130949079 0.00140346248)
(1.70244447 -0.146150476 0.0010481538)
(1.72287064 -0.159851147 0.000700603462)
(1.74821666 -0.170875111 0.000358364961)
(1.77834087 -0.177766929 1.97041515e-05)
(1.81260388 -0.178859064 -0.000313896282)
(1.84967687 -0.172443661 -0.000634669723)
(1.88739761 -0.15708256 -0.000925352077)
(1.9227999 -0.132066122 -0.00115841927)
(4.39474843 0.00232677437 0.341395133)
(3.8578395 0.00589493487 0.52704191)
(3.27421209 0.00821278993 0.417397827)
(2.69849879 0.0092789282 0.263212859)
(2.30837584 0.00907106528 0.147272982)
(2.07409328 0.00756537638 0.0751028735)
(1.92597674 0.00477002073 0.036040179)
(1.83062829 0.000701955703 0.0172201225)
(1.77012287 -0.0046331261 0.00892004884)
(1.73074895 -0.011240244 0.00559573181)
(1.70366302 -0.0191342977 0.00441886111)
(1.68415214 -0.0283410341 0.00401733397)
(1.66979033 -0.0388950963 0.00380283358)
(1.65932198 -0.0508340376 0.00357332518)
(1.65216778 -0.0641889533 0.00328473154)
(1.64816462 -0.0789701306 0.00294578831)
(1.64741669 -0.0951450329 0.0025771968)
(1.65022115 -0.112605924 0.00219686864)
(1.65703102 -0.131124515 0.00181591871)
(1.66842453 -0.150291621 0.0014390603)
(1.68505972 -0.169441994 0.00106622703)
(1.7075951 -0.187568976 0.000694165683)
(1.73655612 -0.203242385 0.000317967455)
(1.77212912 -0.214557752 -6.68896217e-05)
(1.81387377 -0.21916467 -0.000461048719)
(1.86037326 -0.214448507 -0.000856488249)
(1.90890329 -0.197949935 -0.00122719841)
(1.95530395 -0.168105295 -0.00152590023)
(4.39467706 0.00158135154 0.341425369)
(3.85739667 0.00397719211 0.527129064)
(3.27309988 0.005416081 0.4175119)
(2.69650288 0.00583177374 0.263320829)
(2.30540079 0.00515542057 0.147366792)
(2.07008263 0.00332854602 0.0751884878)
(1.92087624 0.00032632498 0.0361225356)
(1.82438982 -0.0038686295 0.0173003505)
(1.76270001 -0.00928637588 0.00899849704)
(1.72209084 -0.0159719273 0.00567270727)
(1.69371232 -0.0239856553 0.00449402698)
(1.67284472 -0.0334048603 0.00409037485)
(1.65705672 -0.0443232609 0.00387373894)
(1.64509265 -0.0568473728 0.00364218748)
(1.63638376 -0.0710895176 0.00335144861)
(1.63079597 -0.0871552717 0.00300983667)
(1.6284917 -0.105121749 0.00263745626)
(1.62986974 -0.125002342 0.00225146617)
(1.63554586 -0.14669265 0.00186203807)
(1.64634259 -0.169891755 0.0014727098)
(1.66326315 -0.19399383 0.00108192362)
(1.68742226 -0.217948841 0.000684382708)
(1.71990017 -0.240101692 0.000272338417)
(1.76147851 -0.258040001 -0.00016251636)
(1.81221204 -0.268516097 -0.000625324974)
(1.8708395 -0.267576019 -0.00111100977)
(1.93407377 -0.251059012 -0.00158153804)
(1.99609916 -0.215761524 -0.00195913634)
(4.39461274 0.000975481138 0.341453381)
(3.85699513 0.00242024391 0.527208644)
(3.27208571 0.00314990922 0.417615243)
(2.69467535 0.00304694067 0.263418285)
(2.30266428 0.00200761725 0.147451034)
(2.06636909 -5.32836351e-05 0.0752643631)
(1.91611298 -0.00318804365 0.0361951689)
(1.81850698 -0.00744066853 0.0173720499)
(1.7556242 -0.0128701487 0.00906964213)
(1.71373607 -0.0195570589 0.00574287232)
(1.68397806 -0.0276039288 0.0045627601)
(1.66161455 -0.0371379238 0.00415740235)
(1.64419729 -0.0483133202 0.0039390491)
(1.630456 -0.0613117241 0.00370581481)
(1.61981525 -0.0763395091 0.00341317048)
(1.6121506 -0.093620033 0.00306891619)
(1.60766345 -0.1133762 0.00269241771)
(1.60683984 -0.135797233 0.00229987637)
(1.61045766 -0.160981138 0.00190031555)
(1.61961122 -0.188841428 0.00149599604)
(1.63572668 -0.218964159 0.00108396355)
(1.66053403 -0.250401703 0.000657467501)
(1.69594302 -0.281397341 0.000207365027)
(1.74374341 -0.309057171 -0.000276202591)
(1.80501801 -0.329040935 -0.000800009549)
(1.87922248 -0.335471956 -0.001363901)
(1.96274587 -0.321338682 -0.00191902752)
(2.04765789 -0.280266529 -0.00238229309)
(4.39455511 0.000496590568 0.341479624)
(3.85663212 0.00119358138 0.527281632)
(3.2711623 0.00137297415 0.417708879)
(2.69300458 0.000878747248 0.263505932)
(2.30015182 -0.000415807774 0.147525586)
(2.06293771 -0.00261513072 0.0753307666)
(1.9116773 -0.00579191138 0.0362596387)
(1.8129809 -0.0100092421 0.017436802)
(1.74891029 -0.0153498313 0.00913420247)
(1.70571642 -0.021924176 0.00580666765)
(1.67451175 -0.0298712477 0.00462532058)
(1.65053342 -0.0393637743 0.00421840724)
(1.63130102 -0.0506146901 0.00399838523)
(1.61550969 -0.0638826576 0.00376333136)
(1.60255158 -0.0794764509 0.00346830984)
(1.59227992 -0.0977558969 0.00312035715)
(1.5848976 -0.119124657 0.00273771462)
(1.58093856 -0.144007483 0.00233508786)
(1.58131023 -0.17280031 0.00191969445)
(1.58737046 -0.205775143 0.00149188805)
(1.60101606 -0.242913485 0.00104710873)
(1.62474704 -0.283633634 0.000578235223)
(1.66163707 -0.326373266 7.82827747e-05)
(1.71508117 -0.367999804 -0.000454960447)
(1.78813773 -0.403109602 -0.00101007659)
(1.88218243 -0.423316249 -0.00156488882)
(1.99421973 -0.417038806 -0.00200937874)
(2.11421651 -0.371552764 -0.00236256929)
(4.39450501 0.000133276687 0.341505238)
(3.85630907 0.000268245569 0.527349362)
(3.27032956 4.44381572e-05 0.417793314)
(2.69148924 -0.000719637943 0.263583661)
(2.29786395 -0.00216219113 0.147590842)
(2.05979583 -0.00439840328 0.0753893134)
(1.90758837 -0.00751358279 0.0363174749)
(1.80784611 -0.0115843826 0.0174951866)
(1.74261297 -0.0167110506 0.0091924658)
(1.69811275 -0.0230260523 0.00586420496)
(1.6654259 -0.0306966293 0.00468160783)
(1.63974968 -0.0399331698 0.00427302873)
(1.61855396 -0.0510001636 0.00405103912)
(1.60047487 -0.0642283318 0.00381350177)
(1.58483838 -0.0800284409 0.00351477201)
(1.57142987 -0.0989053561 0.00316061656)
(1.56039431 -0.121468491 0.00276733037)
(1.55224017 -0.148431616 0.00234686696)
(1.54792232 -0.180589021 0.00190288033)
(1.5489876 -0.21874458 0.00143169145)
(1.55777329 -0.263553567 0.000925349468)
(1.57763356 -0.315212652 0.000376339056)
(1.61312432 -0.372901555 -0.000216093973)
(1.66999877 -0.433886357 -0.000833632656)
(1.75475243 -0.492214392 -0.00143331042)
(1.87310239 -0.536850522 -0.00195075817)
(2.02573768 -0.55013218 -0.00209851298)
(2.20375334 -0.507221765 -0.00227021821)
(4.3944627 -0.000124328258 0.341530264)
(3.85602766 -0.000384824868 0.527411741)
(3.26959076 -0.00087940021 0.417868556)
(2.69013637 -0.00179929294 0.263652022)
(2.29581488 -0.00328449347 0.147648271)
(2.05696895 -0.00545335962 0.0754413111)
(1.90388691 -0.00839638149 0.0363691012)
(1.80316375 -0.0121977849 0.017547301)
(1.73682098 -0.0169673935 0.00924436787)
(1.69104964 -0.0228500459 0.00591527167)
(1.65688984 -0.0300303138 0.00473126556)
(1.6294868 -0.0387438203 0.00432073691)
(1.60624286 -0.0492927195 0.00409620527)
(1.58570867 -0.0620649919 0.00385503676)
(1.56710509 -0.0775592725 0.00355039345)
(1.55009262 -0.0964156268 0.00318591355)
(1.53467678 -0.119451072 0.00277443859)
(1.52122766 -0.147696099 0.0023226234)
(1.51059919 -0.18242241 0.0018265156)
(1.50434988 -0.225139265 0.00127262965)
(1.50508326 -0.277510352 0.000642864829)
(1.51692094 -0.341095048 -7.43661801e-05)
(1.54608364 -0.416730792 -0.000862389641)
(1.60146874 -0.503369486 -0.00165379448)
(1.69499088 -0.595820206 -0.00236307238)
(1.84046794 -0.680868256 -0.0029189238)
(2.04993043 -0.733286765 -0.00323009523)
(2.32810981 -0.70252657 -0.0053584543)
(4.39442683 -0.000287745985 0.341552681)
(3.8557862 -0.000797646301 0.527466412)
(3.26895046 -0.00144551647 0.417933801)
(2.68895997 -0.00241604961 0.263711377)
(2.29402831 -0.00384421398 0.147698263)
(2.05449374 -0.00584405965 0.0754867742)
(1.9006284 -0.00850380536 0.0364142847)
(1.79901479 -0.0119081547 0.017592824)
(1.73164929 -0.0161677775 0.00928953389)
(1.68468656 -0.0214288213 0.00595945321)
(1.64912044 -0.0278794213 0.00477384231)
(1.62003465 -0.0357632667 0.00436101423)
(1.59474899 -0.0453987142 0.00413322332)
(1.57170468 -0.0572043833 0.00388698024)
(1.54997889 -0.0717345336 0.00357360935)
(1.52904599 -0.0897273789 0.00319339616)
(1.50867566 -0.112169725 0.00275338698)
(1.48895063 -0.140381478 0.00225051388)
(1.47040036 -0.176121422 0.00166506154)
(1.45427563 -0.221707571 0.000959315985)
(1.44302911 -0.280122472 8.17894994e-05)
(1.44110628 -0.355006517 -0.00101253934)
(1.45618171 -0.450400333 -0.00231508302)
(1.50096002 -0.569729611 -0.0037043525)
(1.59562153 -0.712979771 -0.00498880029)
(1.76809275 -0.869967075 -0.00573997865)
(2.05852068 -1.0064771 -0.00658706866)