/*--------------------------------*- C++ -*----------------------------------*\
| =========                 |                                                 |
| \\      /  F ield         | foam-extend: Open Source CFD                    |
|  \\    /   O peration     | Version:     4.1                                |
|   \\  /    A nd           | Web:         http://www.foam-extend.org         |
|    \\/     M anipulation  |                                                 |
\*---------------------------------------------------------------------------*/
FoamFile
{
    version     2.0;
    format      ascii;
    class       volVectorField;
    location    "0.45";
    object      U_0;
}
// * * * * * * * * * * * * * * * * * * * * * * * * * * * * * * * * * * * * * //

dimensions      [0 1 -1 0 0 0 0];

internalField   nonuniform List<vector> 
35840
(
(3.94086026 0.268528664 0.261844383)
(3.20795335 0.371831897 0.357379753)
(2.43829568 0.266507316 0.249860608)
(1.72034686 0.156945418 0.141978477)
(1.29366751 0.0888174164 0.0772231887)
(1.05218054 0.0517253792 0.0439391885)
(0.893422048 0.0312056729 0.0270971657)
(0.785210249 0.0189940713 0.0180818183)
(0.711685322 0.011522358 0.0131445867)
(0.660032884 0.00694691116 0.0104220993)
(0.622047154 0.00409210463 0.00881388772)
(0.593062712 0.00225952595 0.00773525741)
(0.570295292 0.00105892428 0.00691488358)
(0.55198848 0.000262704568 0.00623091945)
(0.537008466 -0.000268433769 0.00562865891)
(0.52459925 -0.000620757614 0.00508452442)
(0.514231068 -0.000848186897 0.00458844427)
(0.505510648 -0.000985879893 0.00413497688)
(0.498139452 -0.00105718912 0.00372031137)
(0.491876714 -0.00107711942 0.00334126103)
(0.486522669 -0.0010558476 0.00299480101)
(0.481907784 -0.00100089219 0.00267820521)
(0.47788542 -0.000918190866 0.00238919968)
(0.47432724 -0.000812694812 0.00212596011)
(0.471120134 -0.000688841262 0.0018870876)
(0.468164334 -0.000550878119 0.001671563)
(0.46537234 -0.000403032299 0.00147867694)
(0.462668438 -0.00024954377 0.00130794416)
(4.52124947 0.409953666 0.331399941)
(4.2022456 0.638137912 0.509000233)
(3.63676195 0.543497812 0.407274676)
(2.94289168 0.391292615 0.261505303)
(2.41564682 0.267506084 0.152218571)
(2.06112237 0.181548822 0.085970374)
(1.80859142 0.124042516 0.0502553529)
(1.62432648 0.0850785265 0.0317465303)
(1.49025819 0.0584761336 0.0220751391)
(1.39082458 0.040339188 0.0169186326)
(1.3147873 0.0278928218 0.0140014349)
(1.25512057 0.0192261931 0.0121443522)
(1.20732615 0.0130924422 0.0107987385)
(1.16837412 0.00868132747 0.0097247185)
(1.13618662 0.00546239638 0.00881353901)
(1.10931088 0.00308866777 0.00801305206)
(1.08669583 0.00133245049 0.00729656627)
(1.06755477 4.18186136e-05 0.00664855474)
(1.05127117 -0.00088638826 0.00605807122)
(1.0373507 -0.00152337635 0.00551616454)
(1.0253882 -0.00191994898 0.00501535172)
(1.01504281 -0.00211373079 0.00454971818)
(1.00602044 -0.00213406784 0.00411483088)
(0.998064243 -0.00200536463 0.00370746316)
(0.990947927 -0.00174926693 0.00332542676)
(0.984471283 -0.00138612741 0.00296744587)
(0.978457514 -0.000935906061 0.00263302001)
(0.972751826 -0.000418600367 0.00232225652)
(4.44213353 0.221361986 0.337951993)
(4.08278417 0.436517582 0.518819257)
(3.65713724 0.463118328 0.418089502)
(3.13712321 0.408857418 0.275889289)
(2.71978428 0.331892302 0.166458242)
(2.42182235 0.257602725 0.0961052646)
(2.19810436 0.195673725 0.0564756622)
(2.02636028 0.147051609 0.0358947527)
(1.89486234 0.109796842 0.0253562287)
(1.79245316 0.0816531999 0.0198187593)
(1.7105813 0.0605466894 0.016687565)
(1.64382109 0.044725718 0.0146483439)
(1.58862671 0.0328134312 0.0131030988)
(1.54249323 0.0237738963 0.0118130195)
(1.50360107 0.0168510502 0.010685982)
(1.47060316 0.0115069976 0.00968370559)
(1.44247104 0.00736513854 0.00878721926)
(1.41839521 0.00416326493 0.00798338933)
(1.3977215 0.00171800545 0.00726009011)
(1.37991082 -0.000101071729 0.00660548555)
(1.36450578 -0.00138874988 0.00600848375)
(1.35111488 -0.00221636068 0.00545930947)
(1.33939685 -0.00264010129 0.00494992558)
(1.32904993 -0.00270719686 0.00447409199)
(1.31980521 -0.00246020334 0.00402723724)
(1.31142208 -0.00193988165 0.00360628939)
(1.30368566 -0.00118701881 0.00320947414)
(1.29640535 -0.000243410118 0.00283607582)
(4.41370729 0.123370466 0.337929229)
(3.97527193 0.285997043 0.516843496)
(3.52614288 0.346944394 0.410945139)
(3.04826616 0.341766101 0.267056316)
(2.69650403 0.304732663 0.158688567)
(2.46049534 0.256426874 0.0893123546)
(2.28810517 0.20854192 0.0503495817)
(2.1560147 0.166260572 0.0306491966)
(2.05357298 0.13086207 0.0211775581)
(1.97171141 0.102025349 0.0166840862)
(1.90394214 0.0789016027 0.0144669306)
(1.84656907 0.0605143809 0.0131686967)
(1.79743015 0.0459363923 0.0121799788)
(1.75507003 0.0343674147 0.0112809875)
(1.71842543 0.0251584773 0.0104150207)
(1.68667516 0.0178069173 0.00957986434)
(1.65914755 0.0119359829 0.00878650169)
(1.63527081 0.00726922169 0.00804440922)
(1.61454801 0.00360581294 0.00735740534)
(1.59654213 0.00079982338 0.00672418223)
(1.58086452 -0.0012564503 0.00614015166)
(1.56716672 -0.00264531147 0.00559952851)
(1.55513386 -0.00343271441 0.00509632051)
(1.54447946 -0.00367541586 0.00462507401)
(1.53494196 -0.00342641511 0.00418131827)
(1.52628254 -0.00273872603 0.00376173519)
(1.51828413 -0.00166780223 0.00336415869)
(1.51075136 -0.000272829873 0.00298746733)
(4.40562826 0.0838881037 0.338530295)
(3.92709377 0.205874916 0.518667431)
(3.43458304 0.26464093 0.409525899)
(2.94273881 0.274647271 0.261033959)
(2.60543091 0.257677654 0.150311481)
(2.39688028 0.227978028 0.0806001807)
(2.25546385 0.194223641 0.042147634)
(2.15329586 0.161494853 0.0232702534)
(2.07740169 0.132072973 0.0147414876)
(2.0179343 0.106608731 0.0111885332)
(1.96848923 0.0850311749 0.00984700991)
(1.92581519 0.0669796442 0.00933256067)
(1.88832778 0.0519918399 0.00901991409)
(1.85516123 0.0395986865 0.00868492149)
(1.82578362 0.0293742055 0.00827854831)
(1.79981744 0.020957712 0.00781280287)
(1.77694396 0.0140584337 0.00731459329)
(1.75686331 0.00845012084 0.00680858073)
(1.73928391 0.00396095138 0.0063118829)
(1.72392132 0.000462197866 0.00583402823)
(1.71050041 -0.00214336298 0.00537896156)
(1.6987564 -0.00393120035 0.00494747795)
(1.68843515 -0.00496313705 0.00453836937)
(1.67929422 -0.00529447369 0.00414953302)
(1.67110352 -0.00497966567 0.00377877922)
(1.66364637 -0.00407652652 0.0034242822)
(1.65672107 -0.0026490621 0.00308479943)
(1.65014282 -0.000768968258 0.0027597454)
(4.40178187 0.0613581279 0.339164639)
(3.90241846 0.153225073 0.520513393)
(3.38074557 0.204412517 0.410098464)
(2.86922032 0.221084593 0.258747654)
(2.52751339 0.215754384 0.145979217)
(2.32478104 0.198092542 0.0755292641)
(2.19490114 0.174650221 0.0370217343)
(2.1072449 0.149809849 0.0183396553)
(2.04673481 0.126009324 0.0101164525)
(2.00216893 0.104316248 0.0069131818)
(1.96645776 0.0850753019 0.00592977873)
(1.9360599 0.0682896191 0.00577172888)
(1.9093277 0.0538027337 0.00580768826)
(1.88547075 0.0413927252 0.00580466623)
(1.86410711 0.0308250431 0.00570612268)
(1.84503735 0.0218811197 0.00552010261)
(1.82811993 0.014371951 0.00527257468)
(1.81321598 0.0081424467 0.00498937128)
(1.8001723 0.00307022211 0.00469011064)
(1.78881832 -0.000938947164 0.00438736353)
(1.77897204 -0.00395769828 0.00408849839)
(1.77044003 -0.00604327796 0.00379738159)
(1.76302361 -0.00724437627 0.00351539683)
(1.75652183 -0.00760759861 0.00324257449)
(1.75073488 -0.00718296557 0.00297838719)
(1.74546759 -0.00602833849 0.00272221749)
(1.74053327 -0.00421257804 0.00247363107)
(1.73575773 -0.00181721578 0.00223252328)
(4.39956848 0.046686487 0.339653444)
(3.88830543 0.117719242 0.521953438)
(3.34832177 0.161235246 0.411268897)
(2.82104098 0.180137016 0.258565526)
(2.47122655 0.18140825 0.144562967)
(2.26668863 0.171524528 0.0735004036)
(2.13925263 0.155428461 0.0347871382)
(2.05693457 0.136688506 0.0160491715)
(2.00345106 0.11754726 0.00782521408)
(1.96666807 0.0992121074 0.00464294004)
(1.93891248 0.0822577646 0.003688304)
(1.91628863 0.0669120551 0.00357051647)
(1.89693381 0.0532175169 0.00366528526)
(1.87994279 0.0411225851 0.00374046271)
(1.86489201 0.030534264 0.00373571139)
(1.85158895 0.021348254 0.0036541093)
(1.83992751 0.0134656087 0.00351701573)
(1.82981835 0.00680111175 0.00334651617)
(1.82116182 0.00128635993 0.00315950171)
(1.81383914 -0.00313135853 0.00296690674)
(1.80771338 -0.00649198281 0.00277536896)
(1.80262886 -0.00882673872 0.00258832498)
(1.79841614 -0.0101642229 0.00240704171)
(1.79489534 -0.0105362119 0.00223161201)
(1.79188035 -0.00998312442 0.00206159638)
(1.78918352 -0.00855880477 0.00189639888)
(1.78662114 -0.00633411628 0.00173549133)
(1.78401922 -0.00339886379 0.00157854153)
(4.39821768 0.0366444843 0.340042976)
(3.87961873 0.0929708273 0.523109412)
(3.32763016 0.129545252 0.41249548)
(2.78862346 0.148157665 0.259132855)
(2.4311565 0.152908715 0.144408073)
(2.22291781 0.148075461 0.0729505676)
(2.09466584 0.137265229 0.0341029971)
(2.01365291 0.123254071 0.0153189174)
(1.9629029 0.107949914 0.00705879603)
(1.92971104 0.0925332276 0.00382965331)
(1.90602411 0.077682507 0.00281365437)
(1.88770077 0.0637620645 0.00262808427)
(1.87271086 0.0509491381 0.00266085583)
(1.86003575 0.0393144439 0.00268797949)
(1.84918037 0.0288713918 0.00265210276)
(1.83991237 0.0196059027 0.00255617568)
(1.83210867 0.0114944438 0.00241990869)
(1.82567823 0.00451450896 0.00226309209)
(1.8205281 -0.00135024812 0.0021001998)
(1.81655241 -0.00610902596 0.00194028722)
(1.81362415 -0.00976458414 0.00178842106)
(1.8115971 -0.0123169857 0.0016466246)
(1.81030683 -0.0137689715 0.00151510316)
(1.80957345 -0.0141317527 0.00139313322)
(1.8092057 -0.0134310195 0.00127957751)
(1.80900634 -0.0117125132 0.00117319286)
(1.80877888 -0.00904640163 0.00107278313)
(1.80833532 -0.00552970943 0.00097727424)
(4.39732404 0.0293680514 0.340349619)
(3.87389794 0.0747854085 0.524005368)
(3.31375058 0.105391275 0.413535883)
(2.7661266 0.122588686 0.259832733)
(2.402241 0.128952443 0.144688411)
(2.19009629 0.12729472 0.0729972703)
(2.05993721 0.12019043 0.0340835183)
(1.9785714 0.109747978 0.0152893356)
(1.92858752 0.09752286 0.0070163615)
(1.89690157 0.0845778759 0.00375603737)
(1.87519582 0.0716022945 0.00268793428)
(1.8591556 0.0590250163 0.0024345987)
(1.84663349 0.047105291 0.00239355225)
(1.83653002 0.0359974843 0.00234916012)
(1.82829539 0.0257933963 0.00224910993)
(1.82166192 0.0165495257 0.00209878136)
(1.81648555 0.00830486797 0.00191869326)
(1.81266404 0.00109218175 0.00172843925)
(1.81010006 -0.00505607427 0.00154189211)
(1.80868479 -0.0101049748 0.0013674761)
(1.80828952 -0.0140174656 0.00120936103)
(1.80876363 -0.0167581472 0.00106876823)
(1.80993408 -0.0182984837 0.000945249793)
(1.81160721 -0.0186233404 0.000837508552)
(1.81357258 -0.0177382867 0.000743851349)
(1.81560898 -0.0156766737 0.000662490843)
(1.81749266 -0.0125053449 0.000591629824)
(1.81900744 -0.00832796266 0.000529460128)
(4.39669961 0.0238512932 0.340586953)
(3.86994037 0.0608830272 0.524691614)
(3.3040677 0.0864659079 0.41437026)
(2.75006259 0.101806861 0.260484415)
(2.38096733 0.108636741 0.145088096)
(2.16521074 0.108830985 0.0732515236)
(2.03283965 0.104214419 0.0342991659)
(1.95042312 0.0963665705 0.0155059235)
(1.90027553 0.0865223607 0.00723295461)
(1.86905384 0.0755911527 0.00395936115)
(1.84824669 0.0642163085 0.00286166875)
(1.83340581 0.0528386383 0.00256455678)
(1.82229239 0.041756779 0.00247112044)
(1.81374504 0.0311758699 0.00237134877)
(1.80717289 0.021241655 0.00221686698)
(1.80228243 0.0120637886 0.00201540986)
(1.79891463 0.0037321068 0.00178878402)
(1.79695939 -0.0036725861 0.00155718216)
(1.79631596 -0.010071981 0.00133490004)
(1.79687247 -0.0153869694 0.00113046474)
(1.79849634 -0.0195383811 0.000947886991)
(1.80102885 -0.0224507129 0.000788290781)
(1.80428288 -0.0240581876 0.000651198189)
(1.80804362 -0.0243128329 0.000535296854)
(1.812072 -0.0231938095 0.000438803427)
(1.81611133 -0.0207168887 0.000359682262)
(1.81989739 -0.0169425413 0.00029584235)
(1.82317158 -0.0119810606 0.000245247293)
(4.39624697 0.0195243091 0.340769973)
(3.86709627 0.0499188155 0.525218998)
(3.29707846 0.0712715941 0.415029224)
(2.73827352 0.0846382382 0.261039406)
(2.36498927 0.0912542255 0.145482999)
(2.14605701 0.0924005764 0.0735501171)
(2.01148372 0.08937117 0.0345704733)
(1.92772954 0.0833388096 0.0157778629)
(1.87694652 0.075266881 0.00750657716)
(1.8456213 0.0659088664 0.00422674212)
(1.82510474 0.0558350345 0.00311235483)
(1.81084613 0.0454651319 0.00278889064)
(1.80053304 0.0351066103 0.00266244998)
(1.79295326 0.0249896794 0.00252626816)
(1.78748263 0.015293698 0.00233433994)
(1.78380765 0.00616630998 0.00209585486)
(1.781759 -0.00226252073 0.00183344369)
(1.78122313 -0.00987045369 0.00156794849)
(1.78209895 -0.0165360467 0.00131417417)
(1.78427515 -0.0221359121 0.00108077634)
(1.7876168 -0.0265456785 0.000871954623)
(1.79195719 -0.0296441718 0.000689125745)
(1.79709337 -0.0313209477 0.000532038097)
(1.80278468 -0.031486731 0.000399536086)
(1.80875531 -0.0300858802 0.000290055794)
(1.81470162 -0.0271095667 0.000201833463)
(1.82030461 -0.0226077308 0.000132983162)
(1.82524743 -0.0166973847 8.14901636e-05)
(4.39590828 0.0160382962 0.340911506)
(3.86498359 0.0410488136 0.52562714)
(3.29187566 0.0588142205 0.415548083)
(2.7293919 0.0702482815 0.26149538)
(2.35273195 0.0762697863 0.145832393)
(2.13106403 0.0777743521 0.0738335012)
(1.99442443 0.0756833911 0.0348330723)
(1.90923986 0.0708633538 0.016038486)
(1.85757532 0.0640568152 0.00776650142)
(1.82581181 0.0558744943 0.00448130055)
(1.80520774 0.0468045269 0.00335521058)
(1.79113832 0.0372273003 0.00301414177)
(1.78123482 0.0274388705 0.00286592924)
(1.77424507 0.0176756955 0.00270564386)
(1.76951885 0.00813472171 0.00248855136)
(1.76672792 -0.00101127237 0.0022245141)
(1.76569717 -0.00960153719 0.00193664748)
(1.76631401 -0.0174778503 0.00164624112)
(1.76848184 -0.0244781786 0.00136818176)
(1.77209383 -0.0304340871 0.00111121972)
(1.77701616 -0.0351717522 0.000879720001)
(1.78307628 -0.038517065 0.000675325906)
(1.79005478 -0.0403050629 0.000498088177)
(1.79768111 -0.040393553 0.000347262732)
(1.80563442 -0.0386801817 0.000221739686)
(1.81355089 -0.0351212501 0.000120219452)
(1.82103906 -0.0297496391 4.12418952e-05)
(1.82770292 -0.0226882909 -1.68924448e-05)
(4.39564751 0.0131704776 0.341021801)
(3.86336697 0.0337286144 0.525946446)
(3.28789089 0.0484288321 0.415959107)
(2.72252793 0.0580453422 0.26186638)
(2.34312097 0.0632750479 0.14612948)
(2.11910759 0.0647546906 0.07408403)
(1.98057768 0.0631438875 0.0350674045)
(1.89396434 0.059080781 0.0162689892)
(1.84129309 0.0531320536 0.0079940039)
(1.80888414 0.0457839245 0.00470287267)
(1.78793808 0.037443032 0.00356692219)
(1.77378067 0.0284416042 0.00321241471)
(1.76400385 0.0190516493 0.00304830277)
(1.7573273 0.00950251686 0.0028707228)
(1.75308326 -3.83134359e-06 0.00263554382)
(1.75093546 -0.00928019357 0.00235301431)
(1.75070962 -0.018143061 0.00204657594)
(1.75230041 -0.0264035976 0.00173749569)
(1.755622 -0.0338614032 0.00144051119)
(1.7605785 -0.0403014352 0.00116435568)
(1.76704324 -0.0454949441 0.00091348312)
(1.77484228 -0.0492053874 0.000689714372)
(1.78374135 -0.0512000763 0.000493398368)
(1.79343702 -0.0512678949 0.000324219815)
(1.80355415 -0.0492425901 0.000181600693)
(1.81365244 -0.0450297914 6.48766005e-05)
(1.82324445 -0.038634243 -2.67215481e-05)
(1.83182626 -0.0301819666 -9.42542756e-05)
(4.39544139 0.0107737608 0.341108846)
(3.86209547 0.0275959664 0.526199925)
(3.28475534 0.0396599936 0.41628858)
(2.717088 0.0476036151 0.262169126)
(2.33541272 0.05195568 0.146378916)
(2.10937915 0.0531714277 0.0742997141)
(1.96913401 0.0517240667 0.0352705195)
(1.88113514 0.0480816169 0.0164676812)
(1.82739694 0.0426717171 0.00818856212)
(1.79420853 0.0358745111 0.00489125209)
(1.77273775 0.0280202542 0.0037465227)
(1.75828063 0.0193897745 0.00338095349)
(1.74840496 0.0102233351 0.00320425873)
(1.74181392 0.000733432324 0.00301316516)
(1.73783154 -0.0088830759 0.00276395132)
(1.73612249 -0.0184336321 0.00246721625)
(1.73652179 -0.0277194893 0.00214632873)
(1.73893996 -0.0365265894 0.00182222007)
(1.74331139 -0.0446183161 0.00150942957)
(1.74956142 -0.0517311846 0.00121658197)
(1.7575806 -0.0575749376 0.000948119366)
(1.76720224 -0.0618386489 0.000705960552)
(1.77818249 -0.0642044211 0.000490685201)
(1.79018433 -0.0643699195 0.000302377672)
(1.80276913 -0.0620798839 0.00014107987)
(1.81540014 -0.0571649112 6.97336132e-06)
(1.82746273 -0.0495830306 -9.96903881e-05)
(1.83830457 -0.0394563115 -0.000178918611)
(4.39527439 0.00874812308 0.341178737)
(3.86106904 0.0224030031 0.526404741)
(3.28222269 0.0321893216 0.41655683)
(2.7126677 0.0386139922 0.262418663)
(2.32908598 0.0420710483 0.146588552)
(2.10129377 0.0428825516 0.0744842344)
(1.95948904 0.0413861135 0.0354453857)
(1.8701608 0.037921937 0.0166383522)
(1.81532797 0.0328075528 0.00835489933)
(1.7812673 0.0263333985 0.0050516815)
(1.75913106 0.0187598843 0.00389919384)
(1.7442004 0.0103160234 0.00352427843)
(1.73403131 0.00120532041 0.00333713622)
(1.72732076 -0.00838423563 0.00313499085)
(1.72339465 -0.0182693554 0.00287460881)
(1.72192828 -0.0282607246 0.00256654743)
(1.72277578 -0.0381523572 0.00223372629)
(1.72587495 -0.0477111144 0.00189673605)
(1.73119373 -0.0566672269 0.00156986727)
(1.73869347 -0.064707449 0.00126154447)
(1.74829775 -0.0714728241 0.000976052035)
(1.75986215 -0.0765635712 0.000715254772)
(1.77314471 -0.0795539357 0.000479859659)
(1.78777904 -0.0800197465 0.000270310674)
(1.80325542 -0.0775802759 8.7345198e-05)
(1.81891714 -0.0719535128 -6.77509036e-05)
(1.83398094 -0.0630196422 -0.000193224784)
(1.84758855 -0.0508816699 -0.000287368395)
(4.39513587 0.00702388206 0.341236053)
(3.8602196 0.0179762572 0.526573605)
(3.28012469 0.0257904721 0.41677923)
(2.70898667 0.0308503905 0.262627324)
(2.32377123 0.0334377868 0.146766263)
(2.09442595 0.0337727841 0.0746427446)
(1.95119145 0.032091729 0.0355965215)
(1.86058795 0.0286373378 0.0167858848)
(1.80464646 0.0236390985 0.00849840875)
(1.76964225 0.0173112874 0.0051898644)
(1.7467231 0.00985079901 0.00403061654)
(1.73116539 0.00143528111 0.00364766902)
(1.72052245 -0.0077723984 0.00345174659)
(1.71349434 -0.0176150882 0.00324077693)
(1.70941789 -0.0279312193 0.00297158393)
(1.70798823 -0.0385440992 0.00265424802)
(1.70908989 -0.0492499063 0.00231126676)
(1.71270186 -0.0598044913 0.00196291123)
(1.71884267 -0.0699102409 0.00162310878)
(1.72753029 -0.0792047169 0.00129990003)
(1.73874456 -0.0872536776 0.000997238581)
(1.75238755 -0.0935521487 0.000716741255)
(1.76824056 -0.0975381761 0.000459042581)
(1.78592083 -0.0986244395 0.000224814978)
(1.80484497 -0.0962521508 1.55179816e-05)
(1.82421048 -0.0899687319 -0.000166143757)
(1.84301079 -0.0795243697 -0.000316198538)
(1.86009897 -0.0649726283 -0.000430163476)
(4.39501846 0.00555148458 0.3412842)
(3.85950006 0.0141919463 0.526715871)
(3.2783445 0.020300049 0.41696724)
(2.70584806 0.0241461456 0.262804737)
(2.31920452 0.0259166467 0.146918816)
(2.08846546 0.0257509137 0.0747801873)
(1.94390502 0.0238075211 0.0357283268)
(1.85207149 0.0202533335 0.01691476)
(1.79501038 0.0152463335 0.00862375486)
(1.75900095 0.0089353897 0.00531050726)
(1.73519242 0.00145903378 0.00414528206)
(1.71886246 -0.00705618564 0.00375544975)
(1.70756854 -0.0164911725 0.00355261516)
(1.7000206 -0.0267258535 0.00333491044)
(1.69557315 -0.0376295009 0.00305873479)
(1.69395 -0.0490490986 0.00273376225)
(1.69507768 -0.0607948573 0.00238218153)
(1.69899209 -0.0726232432 0.0020238075)
(1.70578336 -0.0842183005 0.00167203754)
(1.71555302 -0.0951731168 0.00133435401)
(1.7283702 -0.104974542 0.00101414486)
(1.7442204 -0.112996052 0.00071248622)
(1.76294488 -0.118505837 0.000429602407)
(1.784173 -0.120699078 0.000166090868)
(1.8072564 -0.118763899 -7.59800415e-05)
(1.83122206 -0.111987963 -0.000292161557)
(1.85476946 -0.0999040077 -0.000475246733)
(1.87634254 -0.0824573504 -0.000616368595)
(4.39491697 0.00429500798 0.341325678)
(3.8588775 0.0109601064 0.526838368)
(3.27680029 0.0155983049 0.417129296)
(2.7031129 0.0183773062 0.26295819)
(2.31519714 0.0194020231 0.147051615)
(2.08318699 0.0187462972 0.0749007226)
(1.93738148 0.0165073985 0.0358445097)
(1.84435234 0.0127918811 0.0170286003)
(1.78615872 0.00769859726 0.00873448845)
(1.74908503 0.00131909451 0.00541691902)
(1.72428399 -0.00626268941 0.00424642756)
(1.70703792 -0.0149709032 0.00385129748)
(1.69491189 -0.0247334658 0.00364339584)
(1.68662875 -0.0354746534 0.00342054473)
(1.68156533 -0.0471052256 0.00313887526)
(1.67948115 -0.0595091961 0.00280781944)
(1.6803557 -0.0725265732 0.00244912883)
(1.68429825 -0.0859314748 0.00208205089)
(1.69149465 -0.0994059686 0.00171931455)
(1.70216405 -0.112511088 0.00136764784)
(1.71650966 -0.124658186 0.00102958508)
(1.73465507 -0.13508674 0.000705257656)
(1.75656122 -0.142858551 0.000393956333)
(1.78192409 -0.146882652 9.56328008e-05)
(1.8100622 -0.145988934 -0.000187433822)
(1.83981717 -0.139068636 -0.000448880338)
(1.86950638 -0.125290191 -0.000677082152)
(1.8969908 -0.104377978 -0.000856072899)
(4.39482776 0.00322785732 0.341362289)
(3.85832889 0.00821400687 0.526946008)
(3.27543487 0.0115958925 0.417271505)
(2.70068357 0.0134504575 0.263093057)
(2.31161535 0.0138133872 0.147168767)
(2.0784293 0.0127047849 0.0750075903)
(1.93144131 0.0101726511 0.0359479184)
(1.83724133 0.00627467657 0.0171300163)
(1.77789877 0.00105960068 0.00883287972)
(1.73970136 -0.0054322736 0.00551133497)
(1.71380525 -0.0131681032 0.00433693882)
(1.6954973 -0.022122566 0.00393811711)
(1.68234921 -0.0322748228 0.00372642531)
(1.67309662 -0.0436017392 0.00349966037)
(1.66714002 -0.0560676504 0.00321387276)
(1.66427846 -0.0696100932 0.0028781614)
(1.66455254 -0.0841197064 0.00251376276)
(1.66816018 -0.0994128708 0.00213926636)
(1.67540912 -0.115196356 0.00176662321)
(1.6866765 -0.1310242 0.00140162365)
(1.70235793 -0.146249281 0.00104563438)
(1.72279282 -0.159976093 0.000697355578)
(1.74815533 -0.171027245 0.000354440498)
(1.77830543 -0.177944899 1.53119128e-05)
(1.81260469 -0.179057981 -0.000318340257)
(1.84972379 -0.172654065 -0.000638526446)
(1.88749777 -0.15728996 -0.000927807811)
(1.92295484 -0.13225189 -0.00115863207)
(4.39474831 0.00232979587 0.341395295)
(3.85783841 0.0059027936 0.527042245)
(3.27420894 0.00822440885 0.417398185)
(2.69849289 0.00929352503 0.263213173)
(2.30836686 0.00908808124 0.147273246)
(2.07408079 0.00758434074 0.0751031268)
(1.92596024 0.00479046365 0.036040454)
(1.83060727 0.000723392275 0.0172204254)
(1.77009677 -0.00461123644 0.00892036474)
(1.73071709 -0.0112185388 0.00559604635)
(1.70362469 -0.0191135455 0.00441915715)
(1.68410657 -0.0283221838 0.00401759241)
(1.66973675 -0.0388793388 0.00380302792)
(1.65925962 -0.0508228776 0.00357341567)
(1.65209594 -0.0641842886 0.0032846605)
(1.64808281 -0.078974337 0.00294547457)
(1.64732477 -0.0951610439 0.00257653012)
(1.65011955 -0.112637287 0.00219570603)
(1.65692109 -0.131175392 0.00181408537)
(1.66830894 -0.150366683 0.00143636066)
(1.68494297 -0.169546136 0.00106247303)
(1.70748409 -0.18770675 0.000689230474)
(1.73646053 -0.203417041 0.0003118702)
(1.77206159 -0.214769804 -7.38711393e-05)
(1.81384928 -0.219410004 -0.000468257862)
(1.86040739 -0.214716305 -0.000862816505)
(1.90900885 -0.198221113 -0.00123113513)
(1.95548608 -0.168352929 -0.00152580635)
(4.39467694 0.00158480146 0.341425539)
(3.85739557 0.0039861656 0.527129411)
(3.27309664 0.00542938135 0.417512267)
(2.69649679 0.00584856443 0.263321148)
(2.30539151 0.00517513826 0.14736706)
(2.07006968 0.00335072864 0.075188747)
(1.92085907 0.000350548302 0.0361228261)
(1.82436785 -0.00384279316 0.0173006643)
(1.76267254 -0.00925941829 0.00899881484)
(1.72205707 -0.0159444268 0.00567301744)
(1.69367134 -0.0239583148 0.00449431287)
(1.67279551 -0.0333785717 0.00409061326)
(1.65699819 -0.0442991814 0.00387389652)
(1.6450236 -0.0568270195 0.00364221361)
(1.636303 -0.0710748815 0.00335126733)
(1.63070236 -0.087148953 0.00300933706)
(1.62838436 -0.105127107 0.00263648171)
(1.62974829 -0.125023647 0.0022498041)
(1.63541082 -0.146735199 0.00185941443)
(1.64619595 -0.169961901 0.00146879626)
(1.66310917 -0.194098812 0.00107637001)
(1.68726835 -0.218096253 0.000676894043)
(1.71975794 -0.240298386 0.000262815756)
(1.7613645 -0.258290142 -0.000173760998)
(1.81214763 -0.268818214 -0.000637292051)
(1.87084915 -0.26791913 -0.00112178734)
(1.93418024 -0.251418729 -0.00158828782)
(1.99631544 -0.216098683 -0.00195861061)
(4.39461262 0.000979375799 0.341453556)
(3.85699402 0.00243035665 0.527208995)
(3.27208245 0.00316492818 0.41761561)
(2.69466921 0.00306597998 0.263418607)
(2.30265489 0.00203012276 0.147451305)
(2.06635596 -2.77451797e-05 0.0752646405)
(1.91609552 -0.00315982363 0.0361954724)
(1.81848452 -0.00741013188 0.0173723647)
(1.75559594 -0.0128377046 0.0090699554)
(1.71370106 -0.0195231784 0.00574317167)
(1.68393521 -0.0275691943 0.00456302737)
(1.66156259 -0.0371030986 0.00415761057)
(1.64413476 -0.048279437 0.00393915753)
(1.63038125 -0.0612802 0.00370575985)
(1.61972644 -0.0763122945 0.00341285364)
(1.61204582 -0.0935998027 0.00306818868)
(1.6075408 -0.11336659 0.00269106125)
(1.60669772 -0.135803118 0.00229758134)
(1.61029523 -0.161008932 0.00189666086)
(1.61942906 -0.188899346 0.00149044114)
(1.63552791 -0.219062322 0.0010758741)
(1.66032575 -0.25055187 0.00064621039)
(1.69573816 -0.281611888 0.000192520097)
(1.74356271 -0.309346808 -0.000294452939)
(1.8048913 -0.329410501 -0.000820283447)
(1.87918783 -0.335913821 -0.00138297951)
(1.96284374 -0.321824062 -0.0019314788)
(2.04791857 -0.280738584 -0.00238149238)
(4.39455499 0.000500959108 0.341479791)
(3.85663102 0.00120483892 0.527281968)
(3.27115908 0.00138969259 0.417709232)
(2.69299853 0.000900051789 0.263506263)
(2.30014257 -0.000390480427 0.147525873)
(2.06292474 -0.00258615832 0.0753310616)
(1.91165999 -0.00575957382 0.036259943)
(1.81295851 -0.00997381575 0.0174371106)
(1.74888194 -0.0153116006 0.00913450421)
(1.70568106 -0.0218834587 0.00580694868)
(1.6744681 -0.0298284437 0.00462556122)
(1.65047996 -0.0393194345 0.00421857702)
(1.63123595 -0.0505696094 0.00399843566)
(1.61543085 -0.0638380033 0.00376318436)
(1.60245646 -0.0794339395 0.00346784105)
(1.59216564 -0.0977180364 0.0031193727)
(1.584761 -0.119095074 0.00273591933)
(1.58077641 -0.143991354 0.00233204419)
(1.58111959 -0.172804899 0.00191477451)
(1.58714952 -0.205810428 0.00148422934)
(1.60076542 -0.242992763 0.00103560339)
(1.62447179 -0.283773862 0.000561607464)
(1.6613498 -0.326594644 5.53541028e-05)
(1.71480597 -0.368323724 -0.000484652777)
(1.78791444 -0.403553617 -0.00104517483)
(1.88206937 -0.42388417 -0.00160065162)
(1.99428931 -0.417704119 -0.00203595454)
(2.11453938 -0.372236502 -0.00236617194)
(4.39450484 0.000138099556 0.341505341)
(3.85630789 0.000280610949 0.52734962)
(3.27032644 6.28049874e-05 0.41779363)
(2.69148347 -0.000696105243 0.263583982)
(2.2978551 -0.00213407405 0.147591137)
(2.05978339 -0.00436602248 0.0753896046)
(1.90757169 -0.00747713295 0.0363177697)
(1.80782445 -0.011544017 0.0174954803)
(1.74258538 -0.016666897 0.00919274757)
(1.69807809 -0.0229782321 0.00586446031)
(1.66538278 -0.0306452969 0.00468181567)
(1.63969636 -0.0398785732 0.0042731552)
(1.61848832 -0.0509427317 0.00405102827)
(1.60039428 -0.0641688022 0.00381326115)
(1.58473964 -0.0799680456 0.00351415059)
(1.57130908 -0.098846095 0.0031593716)
(1.56024686 -0.121413532 0.00276507865)
(1.55206076 -0.148385871 0.00234301478)
(1.54770523 -0.180559956 0.00189652843)
(1.54872735 -0.218743314 0.00142151919)
(1.557466 -0.263596238 0.000909505531)
(1.57727957 -0.315321908 0.000352410214)
(1.61273252 -0.373107611 -0.000250866778)
(1.66959341 -0.434226482 -0.000881605781)
(1.75438269 -0.492728408 -0.0014948152)
(1.87285369 -0.53756797 -0.0020211503)
(2.02573806 -0.551044937 -0.00216359914)
(2.20416528 -0.508224383 -0.00230312048)
(4.39446248 -0.000119138217 0.341530291)
(3.85602643 -0.000371437916 0.527411908)
(3.26958783 -0.00085944842 0.417868824)
(2.69013107 -0.00177366371 0.263652306)
(2.2958067 -0.00325373366 0.147648546)
(2.05695742 -0.00541772293 0.0754415839)
(1.90387142 -0.00835596225 0.0363693753)
(1.80314353 -0.0121525994 0.0175475708)
(1.7367951 -0.0169173906 0.00924462229)
(1.69101691 -0.0227951137 0.00591549564)
(1.65684881 -0.0299703046 0.00473143696)
(1.6294356 -0.0386785942 0.00432081933)
(1.60617914 -0.0492222114 0.00409613705)
(1.58562944 -0.0619893162 0.00385471367)
(1.56700653 -0.0774788891 0.00354964105)
(1.54996989 -0.0963316029 0.00318444331)
(1.53452378 -0.1193655 0.00277177856)
(1.52103682 -0.147612754 0.00231800951)
(1.51036136 -0.182347787 0.00181872565)
(1.50405465 -0.225084157 0.0012597416)
(1.50471988 -0.277492203 0.00062193541)
(1.516481 -0.341141253 -0.000107655363)
(1.5455665 -0.416882788 -0.000913933049)
(1.60089199 -0.503686916 -0.00173083547)
(1.69440851 -0.59638162 -0.00247273356)
(1.83999741 -0.681759931 -0.00306398007)
(2.0497888 -0.734557395 -0.00339815397)
(2.32862515 -0.704020392 -0.0054862697)
(4.39442661 -0.000282236111 0.341552678)
(3.85578505 -0.000783338526 0.527466529)
(3.26894786 -0.00142411991 0.417934026)
(2.68895531 -0.00238852855 0.263711624)
(2.29402109 -0.00381105504 0.147698509)
(2.05448353 -0.00580543652 0.0754870208)
(1.90061466 -0.00845971124 0.0364145307)
(1.79899678 -0.0118584644 0.017593063)
(1.73162612 -0.0161122478 0.00928975522)
(1.68465708 -0.021367084 0.00595964186)
(1.64908321 -0.027810988 0.00477397615)
(1.6199878 -0.035687545 0.00436105626)
(1.5946901 -0.0453150384 0.00413310952)
(1.57163056 -0.0571120717 0.00388660017)
(1.54988535 -0.071632992 0.00357277413)
(1.52892751 -0.0896162885 0.00319178495)
(1.50852491 -0.112049379 0.00275045719)
(1.48875793 -0.140253374 0.00224534915)
(1.47015303 -0.175989314 0.00165611527)
(1.45395743 -0.221579286 0.000943982807)
(1.44262004 -0.28001304 5.5703375e-05)
(1.44058388 -0.35494345 -0.00105660761)
(1.45552573 -0.450432335 -0.00238898323)
(1.50016522 -0.569940084 -0.00382739294)
(1.59472661 -0.713504794 -0.00519157948)
(1.76723598 -0.871008055 -0.00606575389)
(2.05804113 -1.00824304 -0.0070625311)