/*--------------------------------*- C++ -*----------------------------------*\
| =========                 |                                                 |
| \\      /  F ield         | foam-extend: Open Source CFD                    |
|  \\    /   O peration     | Version:     4.1                                |
|   \\  /    A nd           | Web:         http://www.foam-extend.org         |
|    \\/     M anipulation  |                                                 |
\*---------------------------------------------------------------------------*/
FoamFile
{
    version     2.0;
    format      ascii;
    class       volScalarField::DimensionedInternalField;
    location    "0.45";
    object      V0;
}
// * * * * * * * * * * * * * * * * * * * * * * * * * * * * * * * * * * * * * //

dimensions      [0 3 0 0 0 0 0];

value           nonuniform List<scalar> 
35840
(
1.00000012e-06
1.00000038e-06
1.00000064e-06
1.00000092e-06
1.00000123e-06
1.00000159e-06
1.000002e-06
1.00000248e-06
1.00000303e-06
1.00000368e-06
1.00000442e-06
1.00000528e-06
1.00000625e-06
1.00000734e-06
1.00000857e-06
1.00000992e-06
1.00001139e-06
1.00001297e-06
1.00001465e-06
1.00001639e-06
1.00001817e-06
1.00001996e-06
1.0000217e-06
1.00002337e-06
1.00002491e-06
1.00002627e-06
1.00002742e-06
1.00002831e-06
1.00000013e-06
1.00000038e-06
1.00000065e-06
1.00000094e-06
1.00000126e-06
1.00000162e-06
1.00000204e-06
1.00000254e-06
1.00000311e-06
1.00000377e-06
1.00000454e-06
1.00000543e-06
1.00000644e-06
1.00000758e-06
1.00000885e-06
1.00001026e-06
1.0000118e-06
1.00001346e-06
1.00001522e-06
1.00001706e-06
1.00001894e-06
1.00002083e-06
1.00002268e-06
1.00002445e-06
1.00002608e-06
1.00002753e-06
1.00002875e-06
1.00002971e-06
1.00000013e-06
1.00000041e-06
1.00000069e-06
1.00000099e-06
1.00000133e-06
1.00000172e-06
1.00000218e-06
1.00000271e-06
1.00000332e-06
1.00000405e-06
1.00000489e-06
1.00000586e-06
1.00000697e-06
1.00000824e-06
1.00000966e-06
1.00001123e-06
1.00001296e-06
1.00001484e-06
1.00001683e-06
1.00001892e-06
1.00002107e-06
1.00002324e-06
1.00002537e-06
1.00002741e-06
1.0000293e-06
1.00003099e-06
1.00003241e-06
1.00003352e-06
1.00000015e-06
1.00000045e-06
1.00000076e-06
1.00000109e-06
1.00000147e-06
1.00000191e-06
1.00000241e-06
1.00000301e-06
1.00000372e-06
1.00000455e-06
1.00000552e-06
1.00000664e-06
1.00000794e-06
1.00000943e-06
1.00001111e-06
1.00001299e-06
1.00001506e-06
1.00001732e-06
1.00001974e-06
1.00002229e-06
1.00002492e-06
1.00002759e-06
1.00003023e-06
1.00003277e-06
1.00003513e-06
1.00003724e-06
1.00003903e-06
1.00004043e-06
1.00000017e-06
1.0000005e-06
1.00000085e-06
1.00000124e-06
1.00000167e-06
1.00000217e-06
1.00000276e-06
1.00000346e-06
1.00000429e-06
1.00000527e-06
1.00000643e-06
1.00000779e-06
1.00000937e-06
1.00001119e-06
1.00001325e-06
1.00001558e-06
1.00001817e-06
1.00002101e-06
1.00002406e-06
1.00002731e-06
1.00003068e-06
1.00003412e-06
1.00003754e-06
1.00004084e-06
1.00004392e-06
1.00004668e-06
1.00004903e-06
1.00005087e-06
1.00000019e-06
1.00000058e-06
1.00000098e-06
1.00000142e-06
1.00000193e-06
1.00000252e-06
1.00000322e-06
1.00000405e-06
1.00000505e-06
1.00000624e-06
1.00000766e-06
1.00000933e-06
1.00001129e-06
1.00001356e-06
1.00001616e-06
1.00001911e-06
1.00002241e-06
1.00002606e-06
1.00003002e-06
1.00003424e-06
1.00003867e-06
1.0000432e-06
1.00004772e-06
1.00005211e-06
1.00005624e-06
1.00005995e-06
1.0000631e-06
1.00006559e-06
1.00000022e-06
1.00000067e-06
1.00000114e-06
1.00000166e-06
1.00000225e-06
1.00000295e-06
1.00000379e-06
1.0000048e-06
1.00000601e-06
1.00000747e-06
1.00000922e-06
1.0000113e-06
1.00001375e-06
1.00001661e-06
1.00001992e-06
1.0000237e-06
1.00002797e-06
1.0000327e-06
1.00003789e-06
1.00004345e-06
1.00004931e-06
1.00005536e-06
1.00006142e-06
1.00006734e-06
1.00007292e-06
1.00007796e-06
1.00008226e-06
1.00008565e-06
1.00000026e-06
1.00000078e-06
1.00000133e-06
1.00000194e-06
1.00000264e-06
1.00000348e-06
1.00000448e-06
1.0000057e-06
1.00000718e-06
1.00000898e-06
1.00001114e-06
1.00001374e-06
1.00001682e-06
1.00002045e-06
1.00002468e-06
1.00002954e-06
1.00003506e-06
1.00004124e-06
1.00004805e-06
1.00005541e-06
1.00006322e-06
1.00007132e-06
1.0000795e-06
1.00008752e-06
1.00009511e-06
1.00010199e-06
1.00010788e-06
1.00011254e-06
1.0000003e-06
1.00000091e-06
1.00000155e-06
1.00000226e-06
1.0000031e-06
1.00000409e-06
1.0000053e-06
1.00000677e-06
1.00000858e-06
1.00001079e-06
1.00001347e-06
1.00001671e-06
1.00002058e-06
1.00002517e-06
1.00003056e-06
1.00003681e-06
1.00004396e-06
1.00005203e-06
1.00006098e-06
1.00007073e-06
1.00008114e-06
1.000092e-06
1.00010304e-06
1.00011392e-06
1.00012428e-06
1.0001337e-06
1.0001418e-06
1.00014821e-06
1.00000035e-06
1.00000105e-06
1.0000018e-06
1.00000264e-06
1.00000362e-06
1.0000048e-06
1.00000624e-06
1.00000802e-06
1.00001022e-06
1.00001292e-06
1.00001623e-06
1.00002025e-06
1.0000251e-06
1.00003089e-06
1.00003774e-06
1.00004575e-06
1.00005499e-06
1.00006548e-06
1.00007722e-06
1.00009011e-06
1.00010397e-06
1.00011853e-06
1.00013343e-06
1.00014821e-06
1.00016234e-06
1.00017526e-06
1.0001864e-06
1.00019525e-06
1.0000004e-06
1.00000121e-06
1.00000208e-06
1.00000305e-06
1.0000042e-06
1.0000056e-06
1.00000732e-06
1.00000945e-06
1.0000121e-06
1.00001539e-06
1.00001944e-06
1.00002441e-06
1.00003045e-06
1.00003772e-06
1.00004639e-06
1.0000566e-06
1.00006847e-06
1.00008208e-06
1.00009742e-06
1.00011439e-06
1.0001328e-06
1.00015228e-06
1.00017236e-06
1.00019241e-06
1.00021168e-06
1.00022939e-06
1.00024472e-06
1.00025694e-06
1.00000046e-06
1.00000139e-06
1.00000238e-06
1.0000035e-06
1.00000484e-06
1.00000648e-06
1.00000852e-06
1.00001106e-06
1.00001423e-06
1.0000182e-06
1.00002314e-06
1.00002923e-06
1.00003669e-06
1.00004575e-06
1.00005664e-06
1.00006959e-06
1.00008476e-06
1.00010231e-06
1.00012226e-06
1.00014453e-06
1.00016888e-06
1.00019488e-06
1.00022187e-06
1.00024901e-06
1.00027528e-06
1.00029955e-06
1.00032064e-06
1.00033751e-06
1.00000052e-06
1.00000157e-06
1.0000027e-06
1.00000399e-06
1.00000554e-06
1.00000744e-06
1.00000981e-06
1.00001281e-06
1.0000166e-06
1.00002135e-06
1.00002731e-06
1.00003471e-06
1.00004386e-06
1.00005507e-06
1.00006865e-06
1.00008493e-06
1.0001042e-06
1.00012667e-06
1.00015247e-06
1.00018154e-06
1.00021362e-06
1.00024816e-06
1.00028434e-06
1.00032101e-06
1.00035676e-06
1.00038997e-06
1.00041899e-06
1.00044227e-06
1.00000058e-06
1.00000176e-06
1.00000304e-06
1.0000045e-06
1.00000626e-06
1.00000844e-06
1.0000112e-06
1.00001471e-06
1.00001915e-06
1.0000248e-06
1.00003192e-06
1.00004085e-06
1.00005196e-06
1.00006568e-06
1.00008247e-06
1.00010278e-06
1.00012704e-06
1.00015562e-06
1.00018875e-06
1.00022646e-06
1.00026848e-06
1.00031418e-06
1.00036249e-06
1.0004119e-06
1.00046044e-06
1.00050585e-06
1.00054575e-06
1.00057787e-06
1.00000064e-06
1.00000196e-06
1.00000338e-06
1.00000502e-06
1.000007e-06
1.00000949e-06
1.00001265e-06
1.00001669e-06
1.00002187e-06
1.00002848e-06
1.00003689e-06
1.00004755e-06
1.00006092e-06
1.00007755e-06
1.00009809e-06
1.00012319e-06
1.00015346e-06
1.00018949e-06
1.00023168e-06
1.00028023e-06
1.00033492e-06
1.00039504e-06
1.00045927e-06
1.0005256e-06
1.00059137e-06
1.00065338e-06
1.0007082e-06
1.00075254e-06
1.00000071e-06
1.00000215e-06
1.00000372e-06
1.00000553e-06
1.00000775e-06
1.00001054e-06
1.00001412e-06
1.00001872e-06
1.00002467e-06
1.00003232e-06
1.00004214e-06
1.00005466e-06
1.00007053e-06
1.00009048e-06
1.00011537e-06
1.00014605e-06
1.00018343e-06
1.00022837e-06
1.00028162e-06
1.00034358e-06
1.00041422e-06
1.0004928e-06
1.00057772e-06
1.00066642e-06
1.00075528e-06
1.00083984e-06
1.00091514e-06
1.00097635e-06
1.00000076e-06
1.00000233e-06
1.00000403e-06
1.00000602e-06
1.00000846e-06
1.00001156e-06
1.00001555e-06
1.00002073e-06
1.00002746e-06
1.00003619e-06
1.0000475e-06
1.00006202e-06
1.0000806e-06
1.00010422e-06
1.000134e-06
1.00017106e-06
1.00021663e-06
1.00027205e-06
1.0003385e-06
1.00041679e-06
1.0005072e-06
1.00060909e-06
1.00072067e-06
1.00083871e-06
1.00095841e-06
1.00107357e-06
1.00117703e-06
1.00126165e-06
1.00000082e-06
1.00000249e-06
1.00000432e-06
1.00000646e-06
1.00000911e-06
1.00001249e-06
1.00001688e-06
1.00002261e-06
1.00003013e-06
1.00003995e-06
1.00005275e-06
1.00006937e-06
1.00009085e-06
1.00011837e-06
1.00015333e-06
1.00019733e-06
1.00025225e-06
1.00031981e-06
1.00040166e-06
1.00049941e-06
1.00061389e-06
1.00074479e-06
1.00089025e-06
1.00104646e-06
1.0012072e-06
1.00136391e-06
1.00150627e-06
1.00162362e-06
1.00000086e-06
1.00000262e-06
1.00000454e-06
1.00000682e-06
1.00000964e-06
1.00001328e-06
1.00001803e-06
1.00002427e-06
1.00003252e-06
1.00004338e-06
1.00005765e-06
1.00007633e-06
1.00010066e-06
1.00013213e-06
1.0001725e-06
1.00022397e-06
1.00028893e-06
1.00036984e-06
1.00046936e-06
1.00058987e-06
1.00073306e-06
1.00089936e-06
1.00108729e-06
1.00129265e-06
1.00150779e-06
1.00172111e-06
1.00191775e-06
1.00208152e-06
1.00000089e-06
1.0000027e-06
1.0000047e-06
1.00000707e-06
1.00001003e-06
1.00001387e-06
1.00001891e-06
1.00002559e-06
1.00003446e-06
1.00004624e-06
1.00006183e-06
1.00008241e-06
1.00010943e-06
1.00014472e-06
1.00019054e-06
1.0002496e-06
1.00032493e-06
1.00042007e-06
1.00053896e-06
1.00068519e-06
1.00086168e-06
1.00107019e-06
1.00131032e-06
1.0015783e-06
1.00186536e-06
1.0021564e-06
1.0024301e-06
1.00266144e-06
1.0000009e-06
1.00000274e-06
1.00000477e-06
1.00000719e-06
1.00001024e-06
1.0000142e-06
1.00001944e-06
1.00002643e-06
1.00003578e-06
1.00004827e-06
1.00006494e-06
1.00008711e-06
1.0001165e-06
1.00015526e-06
1.00020609e-06
1.00027231e-06
1.00035795e-06
1.00046768e-06
1.00060659e-06
1.0007803e-06
1.00099417e-06
1.00125171e-06
1.00155451e-06
1.00190116e-06
1.00228328e-06
1.00268247e-06
1.00306882e-06
1.0034027e-06
1.00000089e-06
1.00000272e-06
1.00000474e-06
1.00000716e-06
1.00001022e-06
1.00001422e-06
1.00001955e-06
1.00002669e-06
1.0000363e-06
1.00004923e-06
1.0000666e-06
1.0000899e-06
1.00012104e-06
1.0001625e-06
1.00021745e-06
1.00028987e-06
1.00038471e-06
1.00050792e-06
1.00066636e-06
1.00086785e-06
1.00112051e-06
1.00143211e-06
1.00180919e-06
1.0022542e-06
1.0027622e-06
1.00331499e-06
1.00387304e-06
1.00437238e-06
1.00000086e-06
1.00000263e-06
1.00000459e-06
1.00000694e-06
1.00000994e-06
1.00001388e-06
1.00001914e-06
1.00002624e-06
1.00003585e-06
1.00004886e-06
1.00006646e-06
1.00009022e-06
1.00012224e-06
1.00016526e-06
1.00022284e-06
1.00029958e-06
1.0004013e-06
1.00053529e-06
1.00071048e-06
1.00093727e-06
1.00122775e-06
1.00159623e-06
1.00205763e-06
1.00262346e-06
1.00329899e-06
1.00407546e-06
1.00490923e-06
1.0056969e-06
1.00000081e-06
1.00000247e-06
1.00000432e-06
1.00000654e-06
1.00000939e-06
1.00001314e-06
1.00001819e-06
1.00002502e-06
1.00003432e-06
1.00004698e-06
1.0000642e-06
1.00008762e-06
1.0001194e-06
1.00016245e-06
1.0002206e-06
1.0002989e-06
1.00040394e-06
1.00054424e-06
1.00073068e-06
1.00097699e-06
1.00130085e-06
1.00172432e-06
1.00227414e-06
1.00298286e-06
1.00388286e-06
1.00499452e-06
1.00629386e-06
1.00762459e-06
1.00000073e-06
1.00000224e-06
1.00000392e-06
1.00000595e-06
1.00000855e-06
1.000012e-06
1.00001665e-06
1.00002298e-06
1.00003163e-06
1.00004346e-06
1.00005964e-06
1.00008177e-06
1.000112e-06
1.00015323e-06
1.00020938e-06
1.00028571e-06
1.00038923e-06
1.00052937e-06
1.0007187e-06
1.00097425e-06
1.00131934e-06
1.00178629e-06
1.00242038e-06
1.0032873e-06
1.004481e-06
1.00610508e-06
1.00821736e-06
1.01062082e-06
1.00000063e-06
1.00000194e-06
1.0000034e-06
1.00000516e-06
1.00000744e-06
1.00001046e-06
1.00001455e-06
1.00002013e-06
1.00002779e-06
1.0000383e-06
1.00005274e-06
1.00007258e-06
1.00009983e-06
1.00013722e-06
1.00018848e-06
1.00025871e-06
1.00035488e-06
1.00048658e-06
1.00066721e-06
1.00091592e-06
1.00126101e-06
1.00174614e-06
1.00244145e-06
1.00346274e-06
1.0050048e-06
1.00738107e-06
1.01090559e-06
1.01536448e-06
1.00000051e-06
1.00000158e-06
1.00000277e-06
1.00000421e-06
1.00000607e-06
1.00000855e-06
1.00001192e-06
1.00001653e-06
1.00002287e-06
1.00003159e-06
1.00004362e-06
1.00006021e-06
1.00008308e-06
1.00011461e-06
1.00015805e-06
1.00021792e-06
1.00030049e-06
1.00041458e-06
1.0005729e-06
1.00079449e-06
1.00110943e-06
1.00156875e-06
1.00226532e-06
1.00337718e-06
1.00524677e-06
1.0085073e-06
1.01429863e-06
1.0218293e-06
1.00000038e-06
1.00000117e-06
1.00000204e-06
1.00000311e-06
1.0000045e-06
1.00000634e-06
1.00000885e-06
1.00001229e-06
1.00001703e-06
1.00002357e-06
1.00003261e-06
1.0000451e-06
1.00006237e-06
1.00008625e-06
1.00011926e-06
1.00016493e-06
1.00022818e-06
1.00031604e-06
1.00043882e-06
1.00061232e-06
1.0008626e-06
1.00123653e-06
1.001827e-06
1.00283357e-06
1.00469819e-06
1.00830002e-06
1.01449824e-06
1.03248091e-06
1.00000036e-06
1.00000109e-06
1.00000185e-06
1.00000267e-06
1.00000357e-06
1.00000461e-06
1.0000058e-06
1.00000719e-06
1.0000088e-06
1.00001067e-06
1.00001283e-06
1.00001531e-06
1.00001813e-06
1.00002131e-06
1.00002487e-06
1.00002879e-06
1.00003306e-06
1.00003764e-06
1.0000425e-06
1.00004756e-06
1.00005273e-06
1.00005791e-06
1.00006299e-06
1.00006782e-06
1.00007228e-06
1.00007624e-06
1.00007957e-06
1.00008216e-06
1.00000037e-06
1.00000111e-06
1.00000189e-06
1.00000272e-06
1.00000365e-06
1.00000471e-06
1.00000593e-06
1.00000736e-06
1.00000902e-06
1.00001095e-06
1.00001318e-06
1.00001575e-06
1.00001868e-06
1.00002199e-06
1.00002569e-06
1.00002978e-06
1.00003425e-06
1.00003907e-06
1.00004417e-06
1.0000495e-06
1.00005496e-06
1.00006044e-06
1.00006581e-06
1.00007094e-06
1.00007568e-06
1.0000799e-06
1.00008344e-06
1.00008622e-06
1.00000039e-06
1.00000118e-06
1.000002e-06
1.00000288e-06
1.00000387e-06
1.000005e-06
1.00000632e-06
1.00000785e-06
1.00000965e-06
1.00001175e-06
1.00001419e-06
1.000017e-06
1.00002023e-06
1.0000239e-06
1.00002802e-06
1.0000326e-06
1.00003762e-06
1.00004305e-06
1.00004884e-06
1.00005491e-06
1.00006115e-06
1.00006743e-06
1.00007362e-06
1.00007954e-06
1.00008504e-06
1.00008993e-06
1.00009406e-06
1.00009729e-06
1.00000043e-06
1.00000129e-06
1.00000219e-06
1.00000317e-06
1.00000427e-06
1.00000553e-06
1.00000701e-06
1.00000874e-06
1.00001079e-06
1.00001319e-06
1.00001601e-06
1.00001928e-06
1.00002305e-06
1.00002737e-06
1.00003224e-06
1.00003769e-06
1.00004371e-06
1.00005026e-06
1.00005728e-06
1.00006468e-06
1.00007233e-06
1.00008008e-06
1.00008774e-06
1.00009511e-06
1.00010196e-06
1.00010809e-06
1.00011328e-06
1.00011734e-06
1.00000048e-06
1.00000146e-06
1.00000248e-06
1.00000359e-06
1.00000484e-06
1.0000063e-06
1.00000801e-06
1.00001004e-06
1.00001245e-06
1.00001531e-06
1.00001867e-06
1.00002261e-06
1.00002719e-06
1.00003246e-06
1.00003846e-06
1.00004522e-06
1.00005273e-06
1.00006096e-06
1.00006984e-06
1.00007925e-06
1.00008905e-06
1.00009902e-06
1.00010893e-06
1.00011851e-06
1.00012746e-06
1.00013548e-06
1.00014229e-06
1.00014764e-06
1.00000055e-06
1.00000167e-06
1.00000285e-06
1.00000413e-06
1.0000056e-06
1.00000731e-06
1.00000934e-06
1.00001176e-06
1.00001466e-06
1.00001812e-06
1.00002223e-06
1.00002708e-06
1.00003276e-06
1.00003934e-06
1.00004689e-06
1.00005546e-06
1.00006504e-06
1.00007562e-06
1.00008711e-06
1.00009937e-06
1.00011221e-06
1.00012536e-06
1.00013849e-06
1.00015124e-06
1.00016321e-06
1.00017397e-06
1.00018313e-06
1.00019034e-06
1.00000064e-06
1.00000194e-06
1.00000331e-06
1.00000481e-06
1.00000654e-06
1.00000857e-06
1.000011e-06
1.00001392e-06
1.00001744e-06
1.00002168e-06
1.00002676e-06
1.00003279e-06
1.0000399e-06
1.00004821e-06
1.00005782e-06
1.00006879e-06
1.00008117e-06
1.00009491e-06
1.00010995e-06
1.0001261e-06
1.00014312e-06
1.00016065e-06
1.00017826e-06
1.00019544e-06
1.00021162e-06
1.00022624e-06
1.00023872e-06
1.00024856e-06
1.00000075e-06
1.00000226e-06
1.00000385e-06
1.00000562e-06
1.00000766e-06
1.00001009e-06
1.000013e-06
1.00001654e-06
1.00002084e-06
1.00002606e-06
1.00003234e-06
1.00003987e-06
1.00004882e-06
1.00005935e-06
1.00007161e-06
1.00008573e-06
1.00010175e-06
1.00011969e-06
1.00013944e-06
1.00016082e-06
1.00018348e-06
1.00020697e-06
1.0002307e-06
1.00025398e-06
1.00027601e-06
1.00029597e-06
1.00031307e-06
1.00032659e-06
1.00000087e-06
1.00000263e-06
1.00000449e-06
1.00000657e-06
1.00000898e-06
1.00001187e-06
1.00001537e-06
1.00001966e-06
1.0000249e-06
1.00003131e-06
1.00003909e-06
1.00004848e-06
1.00005972e-06
1.00007306e-06
1.0000887e-06
1.00010683e-06
1.00012759e-06
1.00015099e-06
1.00017696e-06
1.00020526e-06
1.00023546e-06
1.00026698e-06
1.00029902e-06
1.00033061e-06
1.00036066e-06
1.00038801e-06
1.00041151e-06
1.00043013e-06
1.000001e-06
1.00000305e-06
1.00000522e-06
1.00000765e-06
1.00001049e-06
1.00001392e-06
1.00001812e-06
1.00002329e-06
1.00002966e-06
1.0000375e-06
1.00004709e-06
1.00005876e-06
1.00007283e-06
1.00008965e-06
1.00010954e-06
1.00013278e-06
1.00015958e-06
1.00019004e-06
1.0002241e-06
1.0002615e-06
1.00030172e-06
1.00034398e-06
1.00038722e-06
1.0004301e-06
1.00047111e-06
1.0005086e-06
1.00054092e-06
1.00056661e-06
1.00000115e-06
1.00000351e-06
1.00000602e-06
1.00000886e-06
1.00001219e-06
1.00001625e-06
1.00002124e-06
1.00002743e-06
1.00003513e-06
1.00004466e-06
1.00005643e-06
1.00007084e-06
1.00008836e-06
1.00010946e-06
1.00013462e-06
1.00016425e-06
1.00019871e-06
1.00023819e-06
1.00028271e-06
1.00033198e-06
1.00038539e-06
1.00044193e-06
1.00050019e-06
1.00055836e-06
1.0006143e-06
1.00066568e-06
1.00071017e-06
1.00074562e-06
1.00000132e-06
1.00000402e-06
1.0000069e-06
1.00001017e-06
1.00001406e-06
1.00001882e-06
1.00002472e-06
1.00003208e-06
1.00004131e-06
1.00005283e-06
1.00006715e-06
1.00008482e-06
1.00010648e-06
1.00013278e-06
1.00016439e-06
1.00020194e-06
1.00024599e-06
1.0002969e-06
1.0003548e-06
1.00041944e-06
1.00049011e-06
1.00056554e-06
1.00064386e-06
1.00072262e-06
1.00079884e-06
1.00086924e-06
1.00093045e-06
1.00097938e-06
1.0000015e-06
1.00000456e-06
1.00000784e-06
1.00001158e-06
1.00001607e-06
1.00002158e-06
1.00002848e-06
1.00003719e-06
1.00004817e-06
1.00006197e-06
1.00007924e-06
1.00010074e-06
1.0001273e-06
1.00015981e-06
1.00019922e-06
1.00024647e-06
1.00030238e-06
1.00036761e-06
1.00044248e-06
1.00052683e-06
1.00061991e-06
1.00072015e-06
1.00082513e-06
1.00093152e-06
1.00103522e-06
1.00113157e-06
1.00121575e-06
1.00128327e-06
1.00000168e-06
1.00000512e-06
1.00000882e-06
1.00001306e-06
1.00001817e-06
1.0000245e-06
1.00003251e-06
1.00004268e-06
1.00005559e-06
1.00007197e-06
1.00009265e-06
1.00011855e-06
1.00015079e-06
1.00019061e-06
1.00023933e-06
1.00029827e-06
1.00036868e-06
1.00045162e-06
1.00054775e-06
1.00065716e-06
1.00077908e-06
1.00091168e-06
1.00105184e-06
1.00119515e-06
1.00133594e-06
1.00146764e-06
1.00158332e-06
1.00167647e-06
1.00000187e-06
1.00000569e-06
1.00000981e-06
1.00001456e-06
1.00002033e-06
1.00002754e-06
1.00003672e-06
1.00004844e-06
1.00006346e-06
1.00008266e-06
1.00010707e-06
1.00013798e-06
1.00017679e-06
1.00022506e-06
1.00028467e-06
1.0003575e-06
1.00044535e-06
1.00054988e-06
1.00067233e-06
1.00081318e-06
1.00097185e-06
1.00114625e-06
1.00133254e-06
1.00152489e-06
1.00171556e-06
1.0018953e-06
1.00205416e-06
1.00218261e-06
1.00000205e-06
1.00000624e-06
1.00001079e-06
1.00001606e-06
1.00002249e-06
1.0000306e-06
1.00004097e-06
1.00005434e-06
1.00007159e-06
1.00009379e-06
1.00012228e-06
1.00015864e-06
1.00020467e-06
1.00026259e-06
1.00033481e-06
1.00042384e-06
1.00053229e-06
1.00066271e-06
1.0008172e-06
1.00099697e-06
1.00120185e-06
1.00142973e-06
1.00167595e-06
1.00193303e-06
1.00219048e-06
1.00243535e-06
1.00265331e-06
1.00283043e-06
1.00000222e-06
1.00000676e-06
1.00001171e-06
1.00001747e-06
1.00002456e-06
1.00003354e-06
1.00004513e-06
1.00006015e-06
1.00007968e-06
1.00010504e-06
1.00013784e-06
1.00018e-06
1.0002339e-06
1.00030245e-06
1.00038887e-06
1.0004964e-06
1.00062863e-06
1.00078944e-06
1.00098219e-06
1.00120928e-06
1.00147144e-06
1.0017668e-06
1.00209008e-06
1.00243189e-06
1.00277831e-06
1.0031113e-06
1.00341021e-06
1.00365453e-06
1.00000237e-06
1.00000722e-06
1.00001252e-06
1.00001874e-06
1.00002643e-06
1.00003624e-06
1.00004898e-06
1.00006563e-06
1.00008743e-06
1.00011594e-06
1.00015309e-06
1.00020133e-06
1.00026364e-06
1.00034352e-06
1.00044496e-06
1.00057264e-06
1.00073196e-06
1.00092795e-06
1.00116536e-06
1.00144877e-06
1.00178059e-06
1.00215976e-06
1.00258081e-06
1.0030325e-06
1.00349677e-06
1.00394876e-06
1.00435876e-06
1.00469624e-06
1.00000249e-06
1.0000076e-06
1.00001319e-06
1.00001978e-06
1.00002799e-06
1.00003853e-06
1.00005231e-06
1.00007045e-06
1.00009437e-06
1.00012588e-06
1.00016729e-06
1.00022151e-06
1.00029212e-06
1.00038344e-06
1.00050057e-06
1.00064991e-06
1.00083836e-06
1.00107302e-06
1.00136157e-06
1.00171085e-06
1.00212555e-06
1.00260676e-06
1.00314983e-06
1.00374232e-06
1.0043617e-06
1.00497435e-06
1.00553753e-06
1.00600536e-06
1.00000257e-06
1.00000785e-06
1.00001365e-06
1.00002052e-06
1.00002912e-06
1.00004025e-06
1.00005488e-06
1.00007426e-06
1.00010001e-06
1.00013418e-06
1.00017943e-06
1.00023915e-06
1.00031758e-06
1.00041997e-06
1.00055291e-06
1.00072426e-06
1.00094274e-06
1.00121861e-06
1.00156316e-06
1.00198665e-06
1.00249724e-06
1.00309957e-06
1.00379176e-06
1.00456204e-06
1.00538417e-06
1.00621402e-06
1.00699056e-06
1.00764372e-06
1.0000026e-06
1.00000795e-06
1.00001385e-06
1.00002087e-06
1.00002971e-06
1.00004121e-06
1.00005643e-06
1.00007672e-06
1.00010384e-06
1.00014009e-06
1.00018846e-06
1.00025281e-06
1.00033808e-06
1.00045053e-06
1.00059801e-06
1.00079009e-06
1.00103842e-06
1.00135648e-06
1.00175881e-06
1.00226135e-06
1.00287908e-06
1.00362113e-06
1.00449057e-06
1.00548117e-06
1.00656629e-06
1.007691e-06
1.00876975e-06
1.00969364e-06
1.00000258e-06
1.00000789e-06
1.00001375e-06
1.00002077e-06
1.00002965e-06
1.00004126e-06
1.00005672e-06
1.00007745e-06
1.00010534e-06
1.00014286e-06
1.00019328e-06
1.00026089e-06
1.00035124e-06
1.00047154e-06
1.00063094e-06
1.00084098e-06
1.00111589e-06
1.00147281e-06
1.0019313e-06
1.00251339e-06
1.00324141e-06
1.00413582e-06
1.00521213e-06
1.00647232e-06
1.00789554e-06
1.00942306e-06
1.01094036e-06
1.01227585e-06
1.00000249e-06
1.00000763e-06
1.00001332e-06
1.00002015e-06
1.00002884e-06
1.00004027e-06
1.00005556e-06
1.00007616e-06
1.00010405e-06
1.00014179e-06
1.00019285e-06
1.00026182e-06
1.00035473e-06
1.00047954e-06
1.00064655e-06
1.00086903e-06
1.00116378e-06
1.00155167e-06
1.00205801e-06
1.00271186e-06
1.00354604e-06
1.00459797e-06
1.00590346e-06
1.00748386e-06
1.00933702e-06
1.0114175e-06
1.01358921e-06
1.01558219e-06
1.00000234e-06
1.00000717e-06
1.00001253e-06
1.00001899e-06
1.00002724e-06
1.00003814e-06
1.00005278e-06
1.00007262e-06
1.0000996e-06
1.00013632e-06
1.00018631e-06
1.00025425e-06
1.00034647e-06
1.00047135e-06
1.00063998e-06
1.00086694e-06
1.00117115e-06
1.00157692e-06
1.00211495e-06
1.00282319e-06
1.00374902e-06
1.00494875e-06
1.00648497e-06
1.00842462e-06
1.01081668e-06
1.01365793e-06
1.01682485e-06
1.01991543e-06
1.00000212e-06
1.0000065e-06
1.00001137e-06
1.00001726e-06
1.00002481e-06
1.00003482e-06
1.00004833e-06
1.0000667e-06
1.0000918e-06
1.00012612e-06
1.00017308e-06
1.00023728e-06
1.00032498e-06
1.00044457e-06
1.00060738e-06
1.00082854e-06
1.00112819e-06
1.00153304e-06
1.00207837e-06
1.00281068e-06
1.0037914e-06
1.00510089e-06
1.00684215e-06
1.00914803e-06
1.01217969e-06
1.01605568e-06
1.02072716e-06
1.0256582e-06
1.00000184e-06
1.00000563e-06
1.00000986e-06
1.00001499e-06
1.00002158e-06
1.00003035e-06
1.00004222e-06
1.00005843e-06
1.00008064e-06
1.00011114e-06
1.00015305e-06
1.00021062e-06
1.00028966e-06
1.00039809e-06
1.0005467e-06
1.00075013e-06
1.00102829e-06
1.00140832e-06
1.00192743e-06
1.00263729e-06
1.00361098e-06
1.00495404e-06
1.00682118e-06
1.00943724e-06
1.01312288e-06
1.01828821e-06
1.02510897e-06
1.03284225e-06
1.00000149e-06
1.00000458e-06
1.00000803e-06
1.00001222e-06
1.00001762e-06
1.00002483e-06
1.0000346e-06
1.00004798e-06
1.00006636e-06
1.00009169e-06
1.0001266e-06
1.00017472e-06
1.00024106e-06
1.00033248e-06
1.00045839e-06
1.00063175e-06
1.00087042e-06
1.00119922e-06
1.00165318e-06
1.00228293e-06
1.00316451e-06
1.00441763e-06
1.00623967e-06
1.00896235e-06
1.01311516e-06
1.01944208e-06
1.0288417e-06
1.03935725e-06
1.0000011e-06
1.00000338e-06
1.00000593e-06
1.00000904e-06
1.00001305e-06
1.00001841e-06
1.00002569e-06
1.00003567e-06
1.00004943e-06
1.00006841e-06
1.00009463e-06
1.00013087e-06
1.00018097e-06
1.0002502e-06
1.00034586e-06
1.00047805e-06
1.00066077e-06
1.00091373e-06
1.00126504e-06
1.00175624e-06
1.00245173e-06
1.00345806e-06
1.00496457e-06
1.00732551e-06
1.01119436e-06
1.01753177e-06
1.02638098e-06
1.04964569e-06
1.00000056e-06
1.0000017e-06
1.00000288e-06
1.00000415e-06
1.00000557e-06
1.00000718e-06
1.00000904e-06
1.0000112e-06
1.00001371e-06
1.00001662e-06
1.00001999e-06
1.00002385e-06
1.00002824e-06
1.0000332e-06
1.00003873e-06
1.00004483e-06
1.00005148e-06
1.00005863e-06
1.0000662e-06
1.00007408e-06
1.00008213e-06
1.0000902e-06
1.0000981e-06
1.00010563e-06
1.00011258e-06
1.00011874e-06
1.00012393e-06
1.00012797e-06
1.00000057e-06
1.00000173e-06
1.00000294e-06
1.00000424e-06
1.00000569e-06
1.00000734e-06
1.00000924e-06
1.00001146e-06
1.00001404e-06
1.00001705e-06
1.00002053e-06
1.00002453e-06
1.00002909e-06
1.00003425e-06
1.00004001e-06
1.00004639e-06
1.00005335e-06
1.00006085e-06
1.0000688e-06
1.0000771e-06
1.00008561e-06
1.00009414e-06
1.00010251e-06
1.0001105e-06
1.00011788e-06
1.00012444e-06
1.00012997e-06
1.00013428e-06
1.00000061e-06
1.00000183e-06
1.00000311e-06
1.00000449e-06
1.00000603e-06
1.00000779e-06
1.00000984e-06
1.00001223e-06
1.00001503e-06
1.00001829e-06
1.00002209e-06
1.00002649e-06
1.00003152e-06
1.00003723e-06
1.00004365e-06
1.00005078e-06
1.0000586e-06
1.00006706e-06
1.00007607e-06
1.00008552e-06
1.00009524e-06
1.00010503e-06
1.00011466e-06
1.00012389e-06
1.00013245e-06
1.00014007e-06
1.0001465e-06
1.00015154e-06
1.00000067e-06
1.00000201e-06
1.00000342e-06
1.00000494e-06
1.00000665e-06
1.00000862e-06
1.00001092e-06
1.00001362e-06
1.0000168e-06
1.00002055e-06
1.00002493e-06
1.00003003e-06
1.00003591e-06
1.00004262e-06
1.00005022e-06
1.00005871e-06
1.00006808e-06
1.00007828e-06
1.00008922e-06
1.00010074e-06
1.00011266e-06
1.00012472e-06
1.00013666e-06
1.00014813e-06
1.00015881e-06
1.00016835e-06
1.00017643e-06
1.00018276e-06
1.00000075e-06
1.00000227e-06
1.00000386e-06
1.00000559e-06
1.00000754e-06
1.00000981e-06
1.00001248e-06
1.00001564e-06
1.00001939e-06
1.00002384e-06
1.00002908e-06
1.00003522e-06
1.00004235e-06
1.00005056e-06
1.00005991e-06
1.00007043e-06
1.00008213e-06
1.00009495e-06
1.00010877e-06
1.00012344e-06
1.00013869e-06
1.00015423e-06
1.00016967e-06
1.00018459e-06
1.00019852e-06
1.00021102e-06
1.00022163e-06
1.00022996e-06
1.00000086e-06
1.00000261e-06
1.00000443e-06
1.00000644e-06
1.00000872e-06
1.00001138e-06
1.00001454e-06
1.00001832e-06
1.00002283e-06
1.00002822e-06
1.00003462e-06
1.00004218e-06
1.00005102e-06
1.00006127e-06
1.00007304e-06
1.00008638e-06
1.00010131e-06
1.00011778e-06
1.00013568e-06
1.00015478e-06
1.00017477e-06
1.00019525e-06
1.00021571e-06
1.00023557e-06
1.0002542e-06
1.00027096e-06
1.00028523e-06
1.00029646e-06
1.000001e-06
1.00000302e-06
1.00000515e-06
1.00000749e-06
1.00001018e-06
1.00001334e-06
1.00001713e-06
1.00002168e-06
1.00002717e-06
1.00003377e-06
1.00004167e-06
1.00005107e-06
1.00006215e-06
1.0000751e-06
1.00009006e-06
1.00010715e-06
1.00012642e-06
1.00014783e-06
1.00017125e-06
1.00019641e-06
1.00022291e-06
1.00025021e-06
1.00027764e-06
1.0003044e-06
1.00032961e-06
1.00035237e-06
1.00037181e-06
1.00038714e-06
1.00000116e-06
1.00000352e-06
1.000006e-06
1.00000876e-06
1.00001194e-06
1.00001571e-06
1.00002025e-06
1.00002577e-06
1.00003247e-06
1.00004058e-06
1.00005038e-06
1.00006211e-06
1.00007604e-06
1.00009244e-06
1.00011154e-06
1.00013352e-06
1.00015848e-06
1.00018642e-06
1.00021719e-06
1.00025048e-06
1.00028577e-06
1.00032236e-06
1.00035933e-06
1.00039557e-06
1.00042988e-06
1.00046098e-06
1.00048761e-06
1.00050867e-06
1.00000135e-06
1.00000409e-06
1.000007e-06
1.00001023e-06
1.00001399e-06
1.00001849e-06
1.00002395e-06
1.00003062e-06
1.00003879e-06
1.00004876e-06
1.00006088e-06
1.00007551e-06
1.00009302e-06
1.00011379e-06
1.00013815e-06
1.0001664e-06
1.00019872e-06
1.00023518e-06
1.00027562e-06
1.00031969e-06
1.00036674e-06
1.00041583e-06
1.00046573e-06
1.00051493e-06
1.00056173e-06
1.00060432e-06
1.00064092e-06
1.00066992e-06
1.00000156e-06
1.00000474e-06
1.00000812e-06
1.00001191e-06
1.00001635e-06
1.00002169e-06
1.00002822e-06
1.00003627e-06
1.00004619e-06
1.0000584e-06
1.00007335e-06
1.00009152e-06
1.00011344e-06
1.00013964e-06
1.00017061e-06
1.00020681e-06
1.00024855e-06
1.000296e-06
1.00034905e-06
1.00040729e-06
1.00046993e-06
1.00053575e-06
1.00060309e-06
1.00066988e-06
1.00073374e-06
1.00079212e-06
1.00084246e-06
1.00088246e-06
1.0000018e-06
1.00000546e-06
1.00000938e-06
1.00001379e-06
1.00001899e-06
1.0000253e-06
1.00003308e-06
1.00004272e-06
1.00005471e-06
1.00006957e-06
1.00008789e-06
1.00011034e-06
1.00013763e-06
1.00017049e-06
1.00020967e-06
1.00025583e-06
1.00030949e-06
1.00037099e-06
1.00044032e-06
1.00051706e-06
1.00060024e-06
1.0006883e-06
1.00077903e-06
1.00086962e-06
1.00095673e-06
1.00103674e-06
1.00110601e-06
1.00116121e-06
1.00000206e-06
1.00000626e-06
1.00001075e-06
1.00001584e-06
1.0000219e-06
1.00002931e-06
1.0000385e-06
1.00004997e-06
1.00006434e-06
1.00008228e-06
1.00010458e-06
1.00013212e-06
1.00016585e-06
1.00020681e-06
1.00025604e-06
1.00031453e-06
1.00038313e-06
1.00046243e-06
1.0005526e-06
1.00065327e-06
1.00076332e-06
1.00088078e-06
1.00100275e-06
1.00112539e-06
1.00124407e-06
1.00135367e-06
1.00144897e-06
1.00152513e-06
1.00000234e-06
1.00000711e-06
1.00001221e-06
1.00001804e-06
1.00002503e-06
1.00003362e-06
1.00004436e-06
1.00005792e-06
1.00007503e-06
1.00009652e-06
1.00012343e-06
1.00015691e-06
1.00019827e-06
1.0002489e-06
1.00031029e-06
1.00038388e-06
1.00047096e-06
1.00057255e-06
1.00068914e-06
1.00082051e-06
1.00096545e-06
1.00112154e-06
1.00128498e-06
1.00145062e-06
1.00161205e-06
1.00176201e-06
1.00189302e-06
1.00199809e-06
1.00000262e-06
1.00000797e-06
1.00001373e-06
1.00002035e-06
1.0000283e-06
1.00003816e-06
1.00005063e-06
1.00006647e-06
1.00008658e-06
1.0001121e-06
1.0001443e-06
1.00018464e-06
1.00023486e-06
1.00029689e-06
1.00037276e-06
1.00046456e-06
1.00057422e-06
1.00070338e-06
1.00085309e-06
1.00102345e-06
1.00121329e-06
1.00141971e-06