/*--------------------------------*- C++ -*----------------------------------*\
| =========                 |                                                 |
| \\      /  F ield         | foam-extend: Open Source CFD                    |
|  \\    /   O peration     | Version:     4.1                                |
|   \\  /    A nd           | Web:         http://www.foam-extend.org         |
|    \\/     M anipulation  |                                                 |
\*---------------------------------------------------------------------------*/
FoamFile
{
    version     2.0;
    format      ascii;
    class       volVectorField;
    location    "0.25";
    object      cellMotionU;
}
// * * * * * * * * * * * * * * * * * * * * * * * * * * * * * * * * * * * * * //

dimensions      [0 1 -1 0 0 0 0];

internalField   nonuniform List<vector> 
35840
(
(-1.28831407e-21 1.44291166e-09 -2.44989739e-22)
(-3.88078815e-21 4.34647043e-09 -7.37981527e-22)
(-6.56522505e-21 7.35296988e-09 -1.2484581e-21)
(-9.46123105e-21 1.0596287e-08 -1.79916154e-21)
(-1.26865037e-20 1.42081741e-08 -2.41246999e-21)
(-1.63585975e-20 1.83202259e-08 -3.11073296e-21)
(-2.05959998e-20 2.30650819e-08 -3.91647537e-21)
(-2.551832e-20 2.85766374e-08 -4.85243275e-21)
(-3.12454331e-20 3.49890849e-08 -5.94138777e-21)
(-3.78954435e-20 4.2434634e-08 -7.20578204e-21)
(-4.55813535e-20 5.10397822e-08 -8.66708187e-21)
(-5.44063716e-20 6.09200625e-08 -1.03448854e-20)
(-6.4457865e-20 7.21732731e-08 -1.22557723e-20)
(-7.58000678e-20 8.4871313e-08 -1.44119171e-20)
(-8.84657909e-20 9.90509028e-08 -1.6819514e-20)
(-1.02447552e-19 1.14703654e-07 -1.94770918e-20)
(-1.17688721e-19 1.31766159e-07 -2.23738341e-20)
(-1.34075466e-19 1.50110974e-07 -2.54880522e-20)
(-1.51430422e-19 1.69539538e-07 -2.87859875e-20)
(-1.69509109e-19 1.89778162e-07 -3.22211377e-20)
(-1.88000084e-19 2.10478206e-07 -3.5734294e-20)
(-2.06529696e-19 2.31221405e-07 -3.9254451e-20)
(-2.24671976e-19 2.51530938e-07 -4.27006929e-20)
(-2.41963779e-19 2.70888379e-07 -4.59850733e-20)
(-2.57924715e-19 2.88756007e-07 -4.90164018e-20)
(-2.72080832e-19 3.04603309e-07 -5.17047376e-20)
(-2.8399047e-19 3.17935919e-07 -5.3966292e-20)
(-2.93270402e-19 3.28324863e-07 -5.57283801e-20)
(-3.8813826e-21 4.34713651e-09 -7.3809457e-22)
(-1.16891153e-20 1.30917278e-08 -2.22283167e-21)
(-1.97705055e-20 2.21426306e-08 -3.75959827e-21)
(-2.84885065e-20 3.19061094e-08 -5.41740622e-21)
(-3.8199767e-20 4.27814035e-08 -7.26406542e-21)
(-4.92603978e-20 5.51671569e-08 -9.36727892e-21)
(-6.2029448e-20 6.9465304e-08 -1.1795302e-20)
(-7.68696358e-20 8.60818856e-08 -1.46170788e-20)
(-9.41448933e-20 1.054243e-07 -1.79017731e-20)
(-1.14214314e-19 1.27894528e-07 -2.17176147e-20)
(-1.37422159e-19 1.53877941e-07 -2.61299958e-20)
(-1.64083703e-19 1.83727462e-07 -3.11987778e-20)
(-1.94466937e-19 2.17743071e-07 -3.69748094e-20)
(-2.2877042e-19 2.56147015e-07 -4.34957165e-20)
(-2.6709804e-19 2.99055558e-07 -5.07811048e-20)
(-3.09431918e-19 3.46448632e-07 -5.88274134e-20)
(-3.55605253e-19 3.98139464e-07 -6.76027634e-20)
(-4.05277499e-19 4.53746776e-07 -7.70422527e-20)
(-4.57914699e-19 5.12672789e-07 -8.70442369e-20)
(-5.12778096e-19 5.74090483e-07 -9.74681896e-20)
(-5.68924122e-19 6.36943598e-07 -1.08134725e-19)
(-6.25218404e-19 6.99962321e-07 -1.18828286e-19)
(-6.80365537e-19 7.61696621e-07 -1.29302821e-19)
(-7.32955001e-19 8.20567649e-07 -1.3929052e-19)
(-7.81521881e-19 8.74935695e-07 -1.4851335e-19)
(-8.24619194e-19 9.23181135e-07 -1.56696772e-19)
(-8.60896912e-19 9.63792866e-07 -1.63584729e-19)
(-8.8918168e-19 9.95457513e-07 -1.68954734e-19)
(-6.56741827e-21 7.35542776e-09 -1.24887517e-21)
(-1.97740934e-20 2.21466519e-08 -3.76028055e-21)
(-3.34409181e-20 3.74529067e-08 -6.35917032e-21)
(-4.81909161e-20 5.39715716e-08 -9.16400437e-21)
(-6.46361054e-20 7.23877546e-08 -1.22911439e-20)
(-8.33881339e-20 9.33861587e-08 -1.58568708e-20)
(-1.05064854e-19 1.17658434e-07 -1.99786343e-20)
(-1.30292116e-19 1.45905183e-07 -2.47753871e-20)
(-1.59700033e-19 1.78831774e-07 -3.03668708e-20)
(-1.93912999e-19 2.17137172e-07 -3.68717111e-20)
(-2.33532824e-19 2.6149505e-07 -4.4404206e-20)
(-2.79114577e-19 3.12526741e-07 -5.30697255e-20)
(-3.31135045e-19 3.70765934e-07 -6.2958712e-20)
(-3.89954306e-19 4.36615643e-07 -7.41393711e-20)
(-4.55771576e-19 5.10298782e-07 -8.66492814e-20)
(-5.28577432e-19 5.91804682e-07 -1.0048632e-19)
(-6.08105496e-19 6.80835015e-07 -1.155995e-19)
(-6.93787712e-19 7.76753744e-07 -1.31880493e-19)
(-7.84718206e-19 8.78546687e-07 -1.49156802e-19)
(-8.79631324e-19 9.84796961e-07 -1.67187639e-19)
(-9.76899449e-19 1.09368257e-06 -1.85663562e-19)
(-1.07455551e-18 1.20300161e-06 -2.04210807e-19)
(-1.17034357e-18 1.31022893e-06 -2.22400946e-19)
(-1.26179833e-18 1.41260514e-06 -2.3976602e-19)
(-1.34635157e-18 1.50725569e-06 -2.55818752e-19)
(-1.42145972e-18 1.59133367e-06 -2.70076744e-19)
(-1.48474383e-18 1.66217642e-06 -2.82088996e-19)
(-1.53413067e-18 1.71746347e-06 -2.91462602e-19)
(-9.46575683e-21 1.06013599e-08 -1.80002216e-21)
(-2.84978368e-20 3.19165694e-08 -5.41918047e-21)
(-4.81980286e-20 5.39795477e-08 -9.16535688e-21)
(-6.94841926e-20 7.78177081e-08 -1.32130668e-20)
(-9.32588911e-20 1.04441404e-07 -1.77339067e-20)
(-1.20426451e-19 1.34862975e-07 -2.28997929e-20)
(-1.51903921e-19 1.70109008e-07 -2.8885039e-20)
(-1.88624883e-19 2.11224589e-07 -3.58670727e-20)
(-2.31534997e-19 2.5926832e-07 -4.40255788e-20)
(-2.81578146e-19 3.15296797e-07 -5.35398538e-20)
(-3.39672146e-19 3.80337417e-07 -6.45841765e-20)
(-4.06673259e-19 4.55348632e-07 -7.73210476e-20)
(-4.83329192e-19 5.41167336e-07 -9.18922454e-20)
(-5.70221105e-19 6.38443929e-07 -1.08407795e-19)
(-6.67696176e-19 7.47566827e-07 -1.26933149e-19)
(-7.75793679e-19 8.68579721e-07 -1.47475157e-19)
(-8.94169143e-19 1.00109669e-06 -1.69967672e-19)
(-1.02202279e-18 1.14422215e-06 -1.94258008e-19)
(-1.15804004e-18 1.29648425e-06 -2.20095702e-19)
(-1.30035283e-18 1.4557917e-06 -2.47125262e-19)
(-1.44653094e-18 1.61942408e-06 -2.74884623e-19)
(-1.59361146e-18 1.78406483e-06 -3.02810853e-19)
(-1.73817228e-18 1.94588364e-06 -3.30254211e-19)
(-1.87645186e-18 2.10067045e-06 -3.56500955e-19)
(-2.00451236e-18 2.24401805e-06 -3.80804331e-19)
(-2.1184377e-18 2.37154364e-06 -4.02422106e-19)
(-2.21455242e-18 2.47913381e-06 -4.20658007e-19)
(-2.2896431e-18 2.56319222e-06 -4.34903564e-19)
(-1.26939415e-20 1.4216513e-08 -2.41388435e-21)
(-3.82165258e-20 4.28001964e-08 -7.26725226e-21)
(-6.46530642e-20 7.24067783e-08 -1.22943688e-20)
(-9.32697688e-20 1.0445361e-07 -1.77359751e-20)
(-1.25314376e-19 1.40337445e-07 -2.38292828e-20)
(-1.62042075e-19 1.81463394e-07 -3.08128948e-20)
(-2.04732852e-19 2.29264328e-07 -3.89300923e-20)
(-2.54698852e-19 2.85209108e-07 -4.84302205e-20)
(-3.13280123e-19 3.50797814e-07 -5.95678631e-20)
(-3.81827054e-19 4.27542064e-07 -7.2599482e-20)
(-4.61667866e-19 5.16928607e-07 -8.77772147e-20)
(-5.54059783e-19 6.20364646e-07 -1.05339568e-19)
(-6.60123125e-19 7.39104029e-07 -1.25498866e-19)
(-7.8075858e-19 8.74154636e-07 -1.48425513e-19)
(-9.16549487e-19 1.02616898e-06 -1.74229414e-19)
(-1.06765293e-18 1.19532232e-06 -2.02939295e-19)
(-1.23368589e-18 1.38118528e-06 -2.34481124e-19)
(-1.41361539e-18 1.58260086e-06 -2.68657311e-19)
(-1.60566388e-18 1.79757875e-06 -3.05128873e-19)
(-1.80724339e-18 2.02322163e-06 -3.43403089e-19)
(-2.0149325e-18 2.25569954e-06 -3.82829336e-19)
(-2.22450941e-18 2.49028701e-06 -4.22605586e-19)
(-2.43105135e-18 2.72147434e-06 -4.61797474e-19)
(-2.62910485e-18 2.94315827e-06 -4.99370763e-19)
(-2.81292388e-18 3.1489084e-06 -5.34236576e-19)
(-2.97676363e-18 3.33229595e-06 -5.65307065e-19)
(-3.11520897e-18 3.48726119e-06 -5.91557484e-19)
(-3.22350885e-18 3.60848753e-06 -6.12089301e-19)
(-1.63694585e-20 1.83324058e-08 -3.11279826e-21)
(-4.92861047e-20 5.51959923e-08 -9.37216727e-21)
(-8.34174692e-20 9.34190765e-08 -1.58624491e-20)
(-1.20451736e-19 1.3489136e-07 -2.29046008e-20)
(-1.62057442e-19 1.81480651e-07 -3.08158167e-20)
(-2.0992181e-19 2.35075696e-07 -3.99168021e-20)
(-2.65777403e-19 2.97615991e-07 -5.05368223e-20)
(-3.31415367e-19 3.71106592e-07 -6.30161971e-20)
(-4.086829e-19 4.57615255e-07 -7.77057892e-20)
(-4.99462432e-19 5.59249099e-07 -9.49630095e-20)
(-6.05630049e-19 6.78108033e-07 -1.15143872e-19)
(-7.28990796e-19 8.16212283e-07 -1.38590647e-19)
(-8.71189177e-19 9.75402176e-07 -1.65614809e-19)
(-1.03359452e-18 1.15720979e-06 -1.96475209e-19)
(-1.21716296e-18 1.36270444e-06 -2.31351831e-19)
(-1.42228059e-18 1.59231718e-06 -2.70316016e-19)
(-1.64859614e-18 1.84565353e-06 -3.13298727e-19)
(-1.89485511e-18 2.12130797e-06 -3.60059202e-19)
(-2.15875198e-18 2.41669873e-06 -4.10157103e-19)
(-2.43682008e-18 2.72794461e-06 -4.62931913e-19)
(-2.7243809e-18 3.04980856e-06 -5.17493707e-19)
(-3.0155741e-18 3.37573139e-06 -5.72729269e-19)
(-3.30348541e-18 3.69797505e-06 -6.27326763e-19)
(-3.58038173e-18 4.00788579e-06 -6.7982064e-19)
(-3.83805112e-18 4.29627461e-06 -7.2865624e-19)
(-4.06823112e-18 4.55389642e-06 -7.72270883e-19)
(-4.26309424e-18 4.77199312e-06 -8.09185488e-19)
(-4.41574686e-18 4.94285164e-06 -8.38098505e-19)
(-2.06107674e-20 2.30816473e-08 -3.91928348e-21)
(-6.20656878e-20 6.95059661e-08 -1.18021931e-20)
(-1.05109482e-19 1.17708528e-07 -1.99871203e-20)
(-1.51947867e-19 1.70158355e-07 -2.88933952e-20)
(-2.0476903e-19 2.29304968e-07 -3.89369712e-20)
(-2.65799282e-19 2.97640577e-07 -5.05409824e-20)
(-3.37343044e-19 3.77744815e-07 -6.41433147e-20)
(-4.2180551e-19 4.72310078e-07 -8.02008743e-20)
(-5.21694281e-19 5.84143295e-07 -9.91898452e-20)
(-6.39596304e-19 7.16140069e-07 -1.21601241e-19)
(-7.78126651e-19 8.71227268e-07 -1.4793109e-19)
(-9.39845099e-19 1.05226956e-06 -1.78664493e-19)
(-1.12713728e-18 1.26193634e-06 -2.14252948e-19)
(-1.34205875e-18 1.5025271e-06 -2.55084638e-19)
(-1.58614314e-18 1.7757567e-06 -3.0144793e-19)
(-1.86017945e-18 2.08250619e-06 -3.53489082e-19)
(-2.16396888e-18 2.4225507e-06 -4.11166155e-19)
(-2.49607743e-18 2.79428279e-06 -4.74202262e-19)
(-2.85360724e-18 3.19445682e-06 -5.42042552e-19)
(-3.23201552e-18 3.61798665e-06 -6.13820407e-19)
(-3.62501413e-18 4.05783358e-06 -6.88339111e-19)
(-4.02458341e-18 4.50502214e-06 -7.64075295e-19)
(-4.4211291e-18 4.94881593e-06 -8.39209514e-19)
(-4.80380042e-18 5.37707364e-06 -9.11687188e-19)
(-5.16096979e-18 5.77678579e-06 -9.79309819e-19)
(-5.48085253e-18 6.13476793e-06 -1.03985221e-18)
(-5.75222094e-18 6.43845933e-06 -1.09119697e-18)
(-5.96514651e-18 6.67675297e-06 -1.13147382e-18)
(-2.55373606e-20 2.85980026e-08 -4.8560533e-21)
(-7.69181251e-20 8.61363084e-08 -1.46262989e-20)
(-1.30356023e-19 1.45976935e-07 -2.47875387e-20)
(-1.88693719e-19 2.11301902e-07 -3.58801611e-20)
(-2.54763886e-19 2.85282174e-07 -4.84425857e-20)
(-3.31468649e-19 3.71166468e-07 -6.30263274e-20)
(-4.21837931e-19 4.72346516e-07 -8.02070379e-20)
(-5.29067133e-19 5.9239918e-07 -1.005916e-19)
(-6.56526751e-19 7.35097137e-07 -1.24819864e-19)
(-8.07738867e-19 9.04382467e-07 -1.53560067e-19)
(-9.8631657e-19 1.10429871e-06 -1.87497175e-19)
(-1.19585904e-18 1.33887332e-06 -2.27312785e-19)
(-1.43979678e-18 1.61194428e-06 -2.73655535e-19)
(-1.7211827e-18 1.92692627e-06 -3.27101258e-19)
(-2.04242891e-18 2.28651593e-06 -3.88102846e-19)
(-2.40499386e-18 2.69234198e-06 -4.5693082e-19)
(-2.80903248e-18 3.1445737e-06 -5.33607023e-19)
(-3.25303031e-18 3.641512e-06 -6.17835534e-19)
(-3.7334532e-18 4.17919772e-06 -7.08936863e-19)
(-4.24445409e-18 4.75108418e-06 -8.05793343e-19)
(-4.77768675e-18 5.34782923e-06 -9.06815149e-19)
(-5.322279e-18 5.95726582e-06 -1.00993683e-18)
(-5.8650138e-18 6.56460499e-06 -1.11265324e-18)
(-6.39075142e-18 7.15290833e-06 -1.21210085e-18)
(-6.88310048e-18 7.70383874e-06 -1.30518556e-18)
(-7.32531099e-18 8.19865923e-06 -1.38875143e-18)
(-7.70132372e-18 8.61940649e-06 -1.45977789e-18)
(-7.99687484e-18 8.95012607e-06 -1.51558621e-18)
(-3.12684767e-20 3.50149521e-08 -5.94576931e-21)
(-9.42069915e-20 1.05494019e-07 -1.79135804e-20)
(-1.59789228e-19 1.78931937e-07 -3.038383e-20)
(-2.31638821e-19 2.59384937e-07 -4.40453188e-20)
(-3.13387035e-19 3.50917927e-07 -5.95881896e-20)
(-4.08783186e-19 4.5772794e-07 -7.77248551e-20)
(-5.21775811e-19 5.84234916e-07 -9.92053443e-20)
(-6.56575622e-19 7.35152061e-07 -1.24829154e-19)
(-8.17678855e-19 9.15511856e-07 -1.55449532e-19)
(-1.00984542e-18 1.13064142e-06 -1.91969126e-19)
(-1.23803152e-18 1.38608687e-06 -2.35326921e-19)
(-1.50726109e-18 1.68746926e-06 -2.86473516e-19)
(-1.82242841e-18 2.04026342e-06 -3.46333285e-19)
(-2.18802238e-18 2.4494893e-06 -4.15751675e-19)
(-2.60776979e-18 2.91931266e-06 -4.95427167e-19)
(-3.08420053e-18 3.45255876e-06 -5.85828616e-19)
(-3.61814897e-18 4.05015461e-06 -6.87100721e-19)
(-4.20821776e-18 4.71052966e-06 -7.98962866e-19)
(-4.85024625e-18 5.42902162e-06 -9.20609397e-19)
(-5.53684244e-18 6.19735366e-06 -1.0506227e-18)
(-6.25705251e-18 7.00326552e-06 -1.18691306e-18)
(-6.99625018e-18 7.83039042e-06 -1.32670079e-18)
(-7.73632515e-18 8.65846641e-06 -1.46655513e-18)
(-8.45623091e-18 9.46394943e-06 -1.60250073e-18)
(-9.13291547e-18 1.02210544e-05 -1.73019536e-18)
(-9.74260461e-18 1.09031901e-05 -1.84517231e-18)
(-1.02623443e-17 1.14846845e-05 -1.94312921e-18)
(-1.06716485e-17 1.19426263e-05 -2.02023462e-18)
(-3.7919584e-20 4.24617539e-08 -7.21037177e-21)
(-1.14288611e-19 1.27977979e-07 -2.17317404e-20)
(-1.94037331e-19 2.17276798e-07 -3.68953495e-20)
(-2.81734168e-19 3.15472025e-07 -5.35695165e-20)
(-3.81997074e-19 4.2773304e-07 -7.26318046e-20)
(-4.99636607e-19 5.59444752e-07 -9.49961203e-20)
(-6.39755659e-19 7.16319089e-07 -1.21631532e-19)
(-8.0786332e-19 9.04522298e-07 -1.53583722e-19)
(-1.00991923e-18 1.13072434e-06 -1.91983152e-19)
(-1.25231177e-18 1.40207426e-06 -2.3804058e-19)
(-1.54179381e-18 1.72612783e-06 -2.93034388e-19)
(-1.88532852e-18 2.11067477e-06 -3.58280764e-19)
(-2.28984452e-18 2.56346441e-06 -4.35086553e-19)
(-2.76187731e-18 3.09180417e-06 -5.246805e-19)
(-3.30709257e-18 3.70202624e-06 -6.28122153e-19)
(-3.92968846e-18 4.39881891e-06 -7.46188024e-19)
(-4.63169223e-18 5.18444027e-06 -8.79238218e-19)
(-5.41218241e-18 6.05784865e-06 -1.02706969e-18)
(-6.26649003e-18 7.0138102e-06 -1.18876669e-18)
(-7.18546138e-18 8.04207528e-06 -1.36256423e-18)
(-8.15489103e-18 9.12674537e-06 -1.54574532e-18)
(-9.15525193e-18 1.02459722e-05 -1.73459573e-18)
(-1.01618518e-17 1.13721331e-05 -1.92444003e-18)
(-1.11455228e-17 1.2472603e-05 -2.10977774e-18)
(-1.20738987e-17 1.35111822e-05 -2.28452848e-18)
(-1.29132529e-17 1.44501523e-05 -2.44237898e-18)
(-1.36307675e-17 1.52528127e-05 -2.57720648e-18)
(-1.41969988e-17 1.58862375e-05 -2.68353432e-18)
(-4.55939522e-20 5.10540075e-08 -8.66947623e-21)
(-1.374954e-19 1.539603e-07 -2.61439188e-20)
(-2.33711538e-19 2.61695715e-07 -4.44381813e-20)
(-3.39911048e-19 3.80605646e-07 -6.4629593e-20)
(-4.61932985e-19 5.17226319e-07 -8.78276128e-20)
(-6.05925491e-19 6.7843976e-07 -1.1520003e-19)
(-7.78415113e-19 8.71551178e-07 -1.47985917e-19)
(-9.86561239e-19 1.10457351e-06 -1.87543674e-19)
(-1.23822177e-18 1.38630057e-06 -2.35363071e-19)
(-1.54190593e-18 1.72625376e-06 -2.93055686e-19)
(-1.90675312e-18 2.13465798e-06 -3.62350116e-19)
(-2.34234258e-18 2.62222805e-06 -4.45054837e-19)
(-2.85840551e-18 3.19984614e-06 -5.43002373e-19)
(-3.46436334e-18 3.87804497e-06 -6.57960359e-19)
(-4.16870272e-18 4.66630842e-06 -7.91511662e-19)
(-4.97816229e-18 5.57216221e-06 -9.4489915e-19)
(-5.89675268e-18 6.60007835e-06 -1.1188396e-18)
(-6.92464099e-18 7.75022855e-06 -1.31331325e-18)
(-8.05696339e-18 9.01715757e-06 -1.52734184e-18)
(-9.28267882e-18 1.03885026e-05 -1.75877696e-18)
(-1.05836208e-17 1.18439343e-05 -2.00412908e-18)
(-1.19339415e-17 1.33545359e-05 -2.2584735e-18)
(-1.33001551e-17 1.48828527e-05 -2.51547123e-18)
(-1.46419665e-17 1.63838182e-05 -2.76753763e-18)
(-1.59140004e-17 1.78066881e-05 -3.00617699e-18)
(-1.70684227e-17 1.90979705e-05 -3.22247793e-18)
(-1.80582791e-17 2.02051594e-05 -3.40773371e-18)
(-1.88411977e-17 2.1080874e-05 -3.55412067e-18)
(-5.43150678e-20 6.08179826e-08 -1.03275229e-20)
(-1.64097823e-19 1.83743727e-07 -3.12014558e-20)
(-2.79399316e-19 3.12846297e-07 -5.31238539e-20)
(-4.07053932e-19 4.55775844e-07 -7.73934108e-20)
(-5.54454785e-19 6.20808095e-07 -1.05414649e-19)
(-7.29494632e-19 8.167777e-07 -1.38686409e-19)
(-9.4035715e-19 1.05284423e-06 -1.78761807e-19)
(-1.19629365e-18 1.33936125e-06 -2.27395369e-19)
(-1.50764388e-18 1.68789904e-06 -2.86546235e-19)
(-1.88562155e-18 2.11100382e-06 -3.58336416e-19)
(-2.34252226e-18 2.6224298e-06 -4.45088949e-19)
(-2.89141241e-18 3.23679031e-06 -5.49267096e-19)
(-3.54585076e-18 3.96924568e-06 -6.7341935e-19)
(-4.31928148e-18 4.83482391e-06 -8.20061819e-19)
(-5.22424355e-18 5.84753637e-06 -9.91525707e-19)
(-6.27127058e-18 7.01914779e-06 -1.18974652e-18)
(-7.46754597e-18 8.35767335e-06 -1.41600807e-18)
(-8.81532657e-18 9.86561733e-06 -1.67064489e-18)
(-1.0310197e-17 1.15380228e-05 -1.95271616e-18)
(-1.193931e-17 1.33605057e-05 -2.25968207e-18)
(-1.36798346e-17 1.5307521e-05 -2.58712547e-18)
(-1.54979047e-17 1.73411875e-05 -2.92857406e-18)
(-1.73483958e-17 1.94110388e-05 -3.27548333e-18)
(-1.91758472e-17 2.1455053e-05 -3.61743539e-18)
(-2.09167565e-17 2.34022185e-05 -3.94258991e-18)
(-2.25032943e-17 2.51766864e-05 -4.23838812e-18)
(-2.3868218e-17 2.67032647e-05 -4.49246135e-18)
(-2.49504529e-17 2.79136588e-05 -4.69364293e-18)
(-6.4480465e-20 7.21987851e-08 -1.22600674e-20)
(-1.94624144e-19 2.17919698e-07 -3.70046934e-20)
(-3.31430487e-19 3.71097712e-07 -6.30148743e-20)
(-4.83581298e-19 5.41450922e-07 -9.19401644e-20)
(-6.60617803e-19 7.3965946e-07 -1.25592881e-19)
(-8.72083925e-19 9.76405694e-07 -1.65784853e-19)
(-1.12805833e-18 1.26296943e-06 -2.14427971e-19)
(-1.44050295e-18 1.61273686e-06 -2.73789696e-19)
(-1.82314651e-18 2.04106927e-06 -3.46469672e-19)
(-2.29043498e-18 2.56412722e-06 -4.3519866e-19)
(-2.85889255e-18 3.20039285e-06 -5.43094802e-19)
(-3.54613261e-18 3.96956214e-06 -6.73472811e-19)
(-4.37091452e-18 4.89260774e-06 -8.29850927e-19)
(-5.35220929e-18 5.99073355e-06 -1.01576914e-18)
(-6.50831201e-18 7.28438228e-06 -1.23461592e-18)
(-7.85532363e-18 8.79153868e-06 -1.48933579e-18)
(-9.40534944e-18 1.05257167e-05 -1.78208494e-18)
(-1.11643164e-17 1.2493521e-05 -2.11381826e-18)
(-1.31294329e-17 1.4691809e-05 -2.48381502e-18)
(-1.52865245e-17 1.71047139e-05 -2.88919036e-18)
(-1.76075412e-17 1.97008579e-05 -3.32445093e-18)
(-2.00486724e-17 2.24312448e-05 -3.78117806e-18)
(-2.25495815e-17 2.52284032e-05 -4.24793212e-18)
(-2.50342851e-17 2.80073669e-05 -4.71046947e-18)
(-2.74141096e-17 3.06689798e-05 -5.15233991e-18)
(-2.9592906e-17 3.31057253e-05 -5.55588129e-18)
(-3.14742738e-17 3.52098037e-05 -5.90354904e-18)
(-3.29700103e-17 3.68825813e-05 -6.17942756e-18)
(-7.58435166e-20 8.49202378e-08 -1.44201767e-20)
(-2.28920924e-19 2.56316341e-07 -4.35243273e-20)
(-3.90223068e-19 4.36917868e-07 -7.41904613e-20)
(-5.70621417e-19 6.38893863e-07 -1.08483886e-19)
(-7.814833e-19 8.74968106e-07 -1.48563256e-19)
(-1.03450383e-18 1.1582302e-06 -1.96648021e-19)
(-1.34272072e-18 1.50327084e-06 -2.55210432e-19)
(-1.72211632e-18 1.92797424e-06 -3.27278576e-19)
(-2.18939989e-18 2.45103421e-06 -4.16013236e-19)
(-2.76292762e-18 3.09298283e-06 -5.24879842e-19)
(-3.46542281e-18 3.8792337e-06 -6.58161331e-19)
(-4.32003187e-18 4.83566632e-06 -8.20204069e-19)
(-5.35267632e-18 5.99125793e-06 -1.01585759e-18)
(-6.58972641e-18 7.37548052e-06 -1.25002511e-18)
(-8.05760627e-18 9.01786068e-06 -1.5275791e-18)
(-9.78043059e-18 1.09453385e-05 -1.85290414e-18)
(-1.17777326e-17 1.31797298e-05 -2.22945902e-18)
(-1.40615365e-17 1.57344563e-05 -2.6592203e-18)
(-1.66326771e-17 1.8610433e-05 -3.14199426e-18)
(-1.94768333e-17 2.17916347e-05 -3.67469139e-18)
(-2.25605886e-17 2.52406916e-05 -4.25062872e-18)
(-2.58281829e-17 2.88952549e-05 -4.8589886e-18)
(-2.91997277e-17 3.26659973e-05 -5.48457666e-18)
(-3.25717343e-17 3.64372005e-05 -6.10802604e-18)
(-3.58207489e-17 4.0070816e-05 -6.70657084e-18)
(-3.88105653e-17 4.34145291e-05 -7.25544076e-18)
(-4.14028189e-17 4.6313605e-05 -7.72980316e-18)
(-4.34698336e-17 4.86252583e-05 -8.10702381e-18)
(-8.85107868e-20 9.91016387e-08 -1.6828068e-20)
(-2.67239185e-19 2.99214635e-07 -5.08079368e-20)
(-4.56020193e-19 5.10578825e-07 -8.66965422e-20)
(-6.68075057e-19 7.47993279e-07 -1.27005168e-19)
(-9.17109762e-19 1.026799e-06 -1.74335902e-19)
(-1.21787979e-18 1.36351015e-06 -2.3148806e-19)
(-1.58699154e-18 1.77671004e-06 -3.01609126e-19)
(-2.0437145e-18 2.28795894e-06 -3.88347031e-19)
(-2.60872414e-18 2.92038522e-06 -4.95608409e-19)
(-3.30860368e-18 3.70372224e-06 -6.28408794e-19)
(-4.17097671e-18 4.66885836e-06 -7.91942821e-19)
(-5.22573316e-18 5.84920851e-06 -9.91807887e-19)
(-6.50962336e-18 7.28585431e-06 -1.23486405e-18)
(-8.05816673e-18 9.01849103e-06 -1.52768498e-18)
(-9.90946185e-18 1.10896935e-05 -1.87726211e-18)
(-1.20988595e-17 1.35389615e-05 -2.28997734e-18)
(-1.46567907e-17 1.64002958e-05 -2.77117458e-18)
(-1.76050403e-17 1.96980363e-05 -3.32444497e-18)
(-2.09513077e-17 2.34407829e-05 -3.95060633e-18)
(-2.46834767e-17 2.76149894e-05 -4.64665611e-18)
(-2.87634633e-17 3.21780816e-05 -5.40468813e-18)
(-3.31217992e-17 3.70523955e-05 -6.21100017e-18)
(-3.76540376e-17 4.21211512e-05 -7.04559732e-18)
(-4.22203101e-17 4.72279512e-05 -7.8823207e-18)
(-4.6649439e-17 5.21813739e-05 -8.68981712e-18)
(-5.07486835e-17 5.67658708e-05 -9.43347479e-18)
(-5.4319189e-17 6.07590454e-05 -1.00782531e-17)
(-5.71756072e-17 6.3953599e-05 -1.05920674e-17)
(-1.02489536e-19 1.14751108e-07 -1.94850733e-20)
(-3.09560524e-19 3.46593938e-07 -5.88518618e-20)
(-5.28801017e-19 5.92057134e-07 -1.00528823e-19)
(-7.76128614e-19 8.6895757e-07 -1.47538821e-19)
(-1.06812262e-18 1.1958517e-06 -2.03028565e-19)
(-1.42289677e-18 1.59301116e-06 -2.7043311e-19)
(-1.86097019e-18 2.08339615e-06 -3.53639312e-19)
(-2.40605048e-18 2.69353017e-06 -4.57131501e-19)
(-3.08551531e-18 3.45403653e-06 -5.86078213e-19)
(-3.93181272e-18 4.40120335e-06 -7.46591058e-19)
(-4.97957298e-18 5.57374897e-06 -9.45166762e-19)
(-6.27350383e-18 7.02165577e-06 -1.19016906e-18)
(-7.85856599e-18 8.79517585e-06 -1.48994874e-18)
(-9.781722e-18 1.09467921e-05 -1.85314757e-18)
(-1.20996264e-17 1.35398253e-05 -2.29012121e-18)
(-1.48624344e-17 1.66303279e-05 -2.8098398e-18)
(-1.81160463e-17 2.0269603e-05 -3.42027562e-18)
(-2.18975738e-17 2.44991408e-05 -4.12751729e-18)
(-2.62265426e-17 2.93407838e-05 -4.93410876e-18)
(-3.10972916e-17 3.47882262e-05 -5.83765964e-18)
(-3.6469317e-17 4.07962093e-05 -6.82914981e-18)
(-4.22585414e-17 4.72707488e-05 -7.89150979e-18)
(-4.83306668e-17 5.40616909e-05 -8.99870744e-18)
(-5.4498595e-17 6.09598177e-05 -1.01156874e-17)
(-6.05263188e-17 6.77011943e-05 -1.11995302e-17)
(-6.61415902e-17 7.39813356e-05 -1.22021036e-17)
(-7.10582102e-17 7.94801391e-05 -1.30741706e-17)
(-7.50060975e-17 8.38955199e-05 -1.37704603e-17)
(-1.17726626e-19 1.31809149e-07 -2.23810401e-20)
(-3.55720411e-19 3.98270019e-07 -6.76246551e-20)
(-6.0830393e-19 6.81059812e-07 -1.15637221e-19)
(-8.94463096e-19 1.00142937e-06 -1.70023545e-19)
(-1.23409284e-18 1.38164532e-06 -2.34558466e-19)
(-1.64913659e-18 1.8462639e-06 -3.13401424e-19)
(-2.16467588e-18 2.42334844e-06 -4.11300465e-19)
(-2.80996097e-18 3.14562046e-06 -5.33783353e-19)
(-3.61935716e-18 4.05151573e-06 -6.87330061e-19)
(-4.63331487e-18 5.18626682e-06 -8.79546047e-19)
(-5.89868591e-18 6.60225421e-06 -1.11920603e-18)
(-7.4706608e-18 8.36117307e-06 -1.41659778e-18)
(-9.40656713e-18 1.05270956e-05 -1.78231564e-18)
(-1.17793263e-17 1.31815302e-05 -2.2297578e-18)
(-1.46591685e-17 1.64029712e-05 -2.77161945e-18)
(-1.81189022e-17 2.02728077e-05 -3.42080967e-18)
(-2.22256333e-17 2.48660683e-05 -4.18882029e-18)
(-2.70409058e-17 3.02515867e-05 -5.08567557e-18)
(-3.26029248e-17 3.64721223e-05 -6.11655998e-18)
(-3.89198773e-17 4.35368853e-05 -7.28059501e-18)
(-4.59536738e-17 5.14033427e-05 -8.56797063e-18)
(-5.36066356e-17 5.99623147e-05 -9.95781705e-18)
(-6.17099344e-17 6.90250324e-05 -1.14166468e-17)
(-7.0016817e-17 7.831555e-05 -1.28979168e-17)
(-7.82045185e-17 8.74728814e-05 -1.43433074e-17)
(-8.58896258e-17 9.60681868e-05 -1.5686296e-17)
(-9.26595953e-17 0.00010364003 -1.68580881e-17)
(-9.81188755e-17 0.000109745974 -1.77952158e-17)
(-1.3410926e-19 1.5014948e-07 -2.54944766e-20)
(-4.05379803e-19 4.53863291e-07 -7.70617002e-20)
(-6.93963154e-19 7.76953386e-07 -1.31913842e-19)
(-1.02228142e-18 1.14451611e-06 -1.94307165e-19)
(-1.41397252e-18 1.58300626e-06 -2.68725182e-19)
(-1.89533187e-18 2.12184856e-06 -3.60149792e-19)
(-2.49670437e-18 2.79499292e-06 -4.74321354e-19)
(-3.25385016e-18 3.64243986e-06 -6.17991215e-19)
(-4.20928266e-18 4.71173411e-06 -7.99164979e-19)
(-5.41355718e-18 6.0594028e-06 -1.02733045e-18)
(-6.92634826e-18 7.75215826e-06 -1.31363678e-18)
(-8.81742537e-18 9.86798899e-06 -1.67104215e-18)
(-1.11660972e-17 1.24955405e-05 -2.11415472e-18)
(-1.40628485e-17 1.57359538e-05 -2.6594672e-18)
(-1.76108506e-17 1.97045662e-05 -3.32553057e-18)
(-2.19076726e-17 2.45104629e-05 -4.12940344e-18)
(-2.70451748e-17 3.02563791e-05 -5.08646895e-18)
(-3.31275494e-17 3.70588747e-05 -6.21366113e-18)
(-4.02178622e-17 4.49885488e-05 -7.51934648e-18)
(-4.83516612e-17 5.40852449e-05 -9.00583685e-18)
(-5.75018969e-17 6.43187999e-05 -1.0663086e-17)
(-6.75618829e-17 7.55699677e-05 -1.24660772e-17)
(-7.83260054e-17 8.7608828e-05 -1.43722847e-17)
(-8.94753677e-17 0.000100078724 -1.63205788e-17)
(-1.00573767e-16 0.000112491768 -1.82324171e-17)
(-1.11083884e-16 0.000124246952 -2.00165718e-17)
(-1.20410173e-16 0.000134678136 -2.15776421e-17)
(-1.27969213e-16 0.000143132743 -2.28274225e-17)
(-1.514604e-19 1.69573907e-07 -2.87916863e-20)
(-4.58005297e-19 5.12776605e-07 -8.7061459e-20)
(-7.84873228e-19 8.78724151e-07 -1.49186269e-19)
(-1.15826817e-18 1.29674507e-06 -2.20139061e-19)
(-1.60597888e-18 1.79793839e-06 -3.05188736e-19)
(-2.15917358e-18 2.41717948e-06 -4.10237205e-19)
(-2.85416292e-18 3.19508986e-06 -5.42148099e-19)
(-3.73417997e-18 4.18002515e-06 -7.09074854e-19)
(-4.85119141e-18 5.43009727e-06 -9.20788752e-19)
(-6.2677127e-18 7.01520133e-06 -1.18899853e-18)
(-8.0585325e-18 9.01894234e-06 -1.52763903e-18)
(-1.0312223e-17 1.15403255e-05 -1.95309927e-18)
(-1.31320922e-17 1.46948271e-05 -2.48431661e-18)
(-1.66369654e-17 1.86152786e-05 -3.14280052e-18)
(-2.09605604e-17 2.34511837e-05 -3.95234128e-18)
(-2.62321768e-17 2.93471365e-05 -4.93516545e-18)
(-3.2612421e-17 3.64827868e-05 -6.11831111e-18)
(-4.02304436e-17 4.50026458e-05 -7.52165959e-18)
(-4.91860385e-17 5.50184321e-05 -9.15798258e-18)
(-5.95733913e-17 6.66355992e-05 -1.10371601e-17)
(-7.13882633e-17 7.984951e-05 -1.31492298e-17)
(-8.45258484e-17 9.45430128e-05 -1.54647803e-17)
(-9.87471979e-17 0.000110448879 -1.79304865e-17)
(-1.13652639e-16 0.000127120075 -2.04670697e-17)
(-1.28663177e-16 0.000143908971 -2.29698455e-17)
(-1.43032082e-16 0.000159980315 -2.53149019e-17)
(-1.55898886e-16 0.000174371645 -2.73712364e-17)
(-1.66394502e-16 0.000186110867 -2.90177023e-17)
(-1.69535636e-19 1.89808823e-07 -3.22261803e-20)
(-5.12858198e-19 5.74183018e-07 -9.74834161e-20)
(-8.79768249e-19 9.84954973e-07 -1.67213665e-19)
(-1.30055422e-18 1.4560238e-06 -2.47163539e-19)
(-1.80752163e-18 2.02354186e-06 -3.43455962e-19)
(-2.43719304e-18 2.72837341e-06 -4.63002771e-19)
(-3.23250801e-18 3.61855255e-06 -6.13913944e-19)
(-4.24509962e-18 4.75182583e-06 -8.05915892e-19)
(-5.53768567e-18 6.19832256e-06 -1.05078268e-18)
(-7.18656277e-18 8.04334089e-06 -1.36277302e-18)
(-9.28412462e-18 1.03901632e-05 -1.75905071e-18)
(-1.19412411e-17 1.33627203e-05 -2.26004712e-18)
(-1.52891966e-17 1.71077688e-05 -2.88969437e-18)
(-1.9480785e-17 2.17961311e-05 -3.67543486e-18)
(-2.46894343e-17 2.76217362e-05 -4.64777383e-18)
(-3.11043966e-17 3.4796257e-05 -5.83898702e-18)
(-3.89323018e-17 4.35508575e-05 -7.28290025e-18)
(-4.83548133e-17 5.40888302e-05 -9.00643378e-18)
(-5.95760417e-17 6.66385981e-05 -1.10376121e-17)
(-7.27199687e-17 8.13389596e-05 -1.33863915e-17)
(-8.78446413e-17 9.8254937e-05 -1.60469008e-17)
(-1.04870783e-16 0.000117297906 -1.89855447e-17)
(-1.23540333e-16 0.000138179225 -2.21360475e-17)
(-1.43377313e-16 0.000160366477 -2.53971869e-17)
(-1.63634582e-16 0.000183023941 -2.86309925e-17)
(-1.83289576e-16 0.000205007838 -3.16710771e-17)
(-2.01100748e-16 0.000224929478 -3.43398374e-17)
(-2.15755834e-16 0.000241321079 -3.64735203e-17)
(-1.88023505e-19 2.10505572e-07 -3.57387461e-20)
(-5.68994811e-19 6.37026144e-07 -1.08148162e-19)
(-9.77020218e-19 1.09382345e-06 -1.85686517e-19)
(-1.44670854e-18 1.61963101e-06 -2.74918376e-19)
(-2.01517792e-18 2.25598524e-06 -3.82875972e-19)
(-2.72471012e-18 3.05019166e-06 -5.17556252e-19)
(-3.6254493e-18 4.05834015e-06 -6.88421756e-19)
(-4.77825794e-18 5.34849474e-06 -9.06923577e-19)
(-6.25780039e-18 7.00413786e-06 -1.18705494e-18)
(-8.1558714e-18 9.12788978e-06 -1.54593115e-18)
(-1.05849127e-17 1.18454419e-05 -2.00437367e-18)
(-1.36815543e-17 1.53095242e-05 -2.58745056e-18)
(-1.76098601e-17 1.97035488e-05 -3.32488843e-18)
(-2.25637348e-17 2.52443238e-05 -4.25122097e-18)
(-2.87675835e-17 3.21828142e-05 -5.40546166e-18)
(-3.64741026e-17 4.08016892e-05 -6.83004541e-18)
(-4.59587805e-17 5.14091744e-05 -8.56892387e-18)
(-5.75029473e-17 6.43200766e-05 -1.06632922e-17)
(-7.13830689e-17 7.98437734e-05 -1.31483021e-17)
(-8.78483371e-17 9.82591086e-05 -1.60474394e-17)
(-1.07017407e-16 0.000119698864 -1.93537338e-17)
(-1.28889188e-16 0.000144161826 -2.30315237e-17)
(-1.53214142e-16 0.000171368842 -2.69975659e-17)
(-1.79479908e-16 0.000200746778 -3.11256871e-17)
(-2.06765435e-16 0.000231265388 -3.52357622e-17)
(-2.33708236e-16 0.000261400699 -3.91072473e-17)
(-2.58530529e-16 0.000289164253 -4.25033207e-17)
(-2.79217099e-16 0.00031230204 -4.52074348e-17)
(-2.06550314e-19 2.31245842e-07 -3.92583702e-20)
(-6.25280606e-19 7.00036009e-07 -1.1884011e-19)
(-1.07466173e-18 1.20312735e-06 -2.04230995e-19)
(-1.59376758e-18 1.78424955e-06 -3.02840523e-19)
(-2.22472508e-18 2.4905422e-06 -4.22646567e-19)
(-3.01586333e-18 3.37607399e-06 -5.72784214e-19)
(-4.02496555e-18 4.50547578e-06 -7.64147866e-19)
(-5.32278019e-18 5.95786254e-06 -1.01003196e-18)
(-6.99690546e-18 7.83117299e-06 -1.3268251e-18)
(-9.15610817e-18 1.02469971e-05 -1.73475802e-18)