/*--------------------------------*- C++ -*----------------------------------*\
| =========                 |                                                 |
| \\      /  F ield         | foam-extend: Open Source CFD                    |
|  \\    /   O peration     | Version:     4.1                                |
|   \\  /    A nd           | Web:         http://www.foam-extend.org         |
|    \\/     M anipulation  |                                                 |
\*---------------------------------------------------------------------------*/
FoamFile
{
    version     2.0;
    format      ascii;
    class       surfaceScalarField;
    location    "0.25";
    object      meshPhi;
}
// * * * * * * * * * * * * * * * * * * * * * * * * * * * * * * * * * * * * * //

dimensions      [0 3 -1 0 0 0 0];

internalField   nonuniform List<scalar> 
102656
(
0
2.83248616e-13
5.78241238e-21
1.15648264e-20
8.55565884e-13
-5.78241407e-21
-1.15648279e-20
1.45027053e-12
0
2.31296599e-20
2.09117135e-12
0
-6.93889931e-20
2.80427076e-12
-1.15648392e-20
-2.31296699e-20
3.615494e-12
-1.15648438e-20
9.25187007e-20
4.55092823e-12
0
0
5.6368644e-12
-1.15648553e-20
3.50574335e-27
6.89960899e-12
0
4.62594035e-20
8.36503599e-12
5.78243498e-21
-5.07191596e-27
1.00578554e-11
5.78243856e-21
4.62594386e-20
1.20005846e-11
0
9.2518944e-20
1.42122239e-11
0
-9.25189888e-20
1.67066632e-11
-5.78246025e-21
0
1.94908736e-11
5.78246611e-21
-2.23618816e-26
2.2562976e-11
-5.78247731e-21
9.25192041e-20
2.59103186e-11
5.78248706e-21
0
2.95077331e-11
0
-2.77558156e-19
3.33161726e-11
5.78250477e-21
1.85039002e-19
3.72819506e-11
0
0
4.13367971e-11
-4.78052749e-27
2.77558983e-19
4.53989148e-11
-5.25030421e-27
-9.25197339e-20
4.93751517e-11
5.78254968e-21
5.08843794e-26
5.31643109e-11
5.78256028e-21
0
5.66614947e-11
0
1.1324759e-25
5.97632582e-11
5.78258565e-21
0
6.23732259e-11
1.15651793e-20
6.44077615e-11
5.78259173e-21
0
0
5.7240441e-13
0
-1.15648266e-20
1.72882181e-12
0
-1.15648284e-20
2.93033646e-12
5.78241572e-21
-5.72862138e-28
4.22550917e-12
-2.46832396e-28
7.51626151e-28
5.66745394e-12
5.78241959e-21
2.31296685e-20
7.30914971e-12
5.78242234e-21
-4.62593529e-20
9.20397208e-12
1.15648497e-20
4.6259361e-20
1.14058146e-11
-5.78242838e-21
0
1.39687354e-11
0
4.62594065e-20
1.69460679e-11
1.15648722e-20
0
2.03889459e-11
-5.78244048e-21
6.20724876e-27
2.43442097e-11
-1.73473412e-20
0
2.88516962e-11
-1.69302908e-27
0
3.39409562e-11
-1.15649216e-20
0
3.96275118e-11
-1.15649382e-20
-9.25191686e-20
4.59088342e-11
5.78247689e-21
9.2519227e-20
5.27603126e-11
1.15649734e-20
-9.25193444e-20
6.01315646e-11
-1.15650016e-20
1.8503888e-19
6.79435097e-11
-5.78250844e-21
-9.25195012e-20
7.60866684e-11
-1.15650447e-20
9.25196395e-20
8.4421148e-11
5.78253209e-21
2.77559172e-19
9.27787074e-11
0
-9.25197862e-20
1.00967163e-10
0
5.32551039e-26
1.0877719e-10
-5.78256713e-21
1.85039905e-19
1.15991327e-10
0
1.85040161e-19
1.22394701e-10
-7.24321565e-27
1.85040154e-19
1.27786744e-10
5.78259454e-21
1.31992995e-10
5.78260062e-21
1.85040363e-19
-5.78241248e-21
8.78221662e-13
5.78241248e-21
1.15648266e-20
2.65241454e-12
0
-1.15648287e-20
4.49618614e-12
5.78241596e-21
-2.3129661e-20
6.48532327e-12
0
1.59475031e-27
8.70290191e-12
-5.78242042e-21
2.3129672e-20
1.1231937e-11
-5.78242255e-21
4.62593543e-20
1.41563145e-11
-1.1564852e-20
-4.62593751e-20
1.75610712e-11
-1.15648583e-20
4.62593935e-20
2.15319219e-11
0
9.25188159e-20
2.61539349e-11
-1.15648757e-20
0
3.15092683e-11
5.7824414e-21
0
3.76739066e-11
-5.78245195e-21
9.25189864e-20
4.47133859e-11
-1.15649137e-20
9.25190388e-20
5.2677565e-11
-5.78246616e-21
9.2519137e-20
6.15946017e-11
5.78247303e-21
-9.25192247e-20
7.14644126e-11
0
-2.91845573e-26
8.22520358e-11
0
-9.25193899e-20
9.38814589e-11
-3.9031156e-27
3.75800488e-26
1.06230596e-10
1.15650374e-20
-1.85039205e-19
1.19128182e-10
-4.97767495e-27
-2.77559186e-19
1.32353363e-10
5.78254565e-21
9.25198232e-20
1.45638664e-10
0
1.11206772e-25
1.58676805e-10
-1.33480361e-26
9.25200909e-20
1.71131518e-10
0
3.70080619e-19
1.82652068e-10
-1.15652038e-20
-1.3374395e-25
1.92890713e-10
-8.15273908e-27
0
2.01521885e-10
-1.15652527e-20
2.08261534e-10
0
0
5.78241252e-21
1.21373838e-12
-5.7824126e-21
-1.15648271e-20
3.66601446e-12
0
-3.46944872e-20
6.21608419e-12
5.78241659e-21
0
8.97130724e-12
-2.87499653e-28
8.80133325e-28
1.20496797e-11
0
-4.62593494e-20
1.55695026e-11
-5.01631785e-28
-2.8307175e-27
1.96508918e-11
1.15648545e-20
4.62593741e-20
2.441635e-11
-5.78243155e-21
4.3138376e-27
2.99902517e-11
-5.78243622e-21
-4.62594198e-20
3.649709e-11
-5.78244171e-21
-1.38778345e-19
4.40583454e-11
-1.45127857e-27
1.38778439e-19
5.27878648e-11
0
-1.81835214e-26
6.27857068e-11
-2.09003196e-27
-2.15123869e-26
7.41305023e-11
1.15649457e-20
-9.25191962e-20
8.68705295e-11
5.78248228e-21
-2.94200228e-26
1.01013879e-10
5.78249423e-21
1.85038849e-19
1.16518309e-10
0
0
1.33281599e-10
-5.78252634e-21
0
1.51133451e-10
-5.78254237e-21
-9.25197862e-20
1.69830107e-10
-5.78255927e-21
-1.85039844e-19
1.89052916e-10
0
1.85040177e-19
2.08411975e-10
5.78258717e-21
9.25203236e-20
2.27455671e-10
-1.73478278e-20
9.25203166e-20
2.4568643e-10
0
0
2.62582341e-10
-1.15652796e-20
1.85041063e-19
2.77623523e-10
-5.7826682e-21
0
2.90321348e-10
0
3.00248059e-10
-5.78266889e-21
-3.70082869e-19
-5.78241269e-21
1.59188365e-12
-1.15648254e-20
1.15648275e-20
4.80896164e-12
0
-1.15648298e-20
8.15777825e-12
5.78241702e-21
2.31296654e-20
1.17835863e-11
5.78241945e-21
2.31296715e-20
1.58464955e-11
-5.78242264e-21
-4.62593574e-20
2.05077693e-11
0
0
2.59321809e-11
0
0
3.22890829e-11
0
-9.25188267e-20
3.97519777e-11
-5.78244001e-21
6.11161921e-27
4.84963631e-11
-1.15648917e-20
4.62594724e-20
5.86956341e-11
-5.78245421e-21
-9.25190282e-20
7.05148471e-11
5.78246116e-21
0
8.41022313e-11
5.7824712e-21
-9.25192041e-20
9.95784594e-11
0
0
1.1702389e-10
0
-9.25194766e-20
1.3646426e-10
1.15650256e-20
-1.850392e-19
1.57855622e-10
-4.78058717e-27
-9.25197299e-20
1.81069681e-10
5.78254525e-21
5.39805769e-26
2.05881023e-10
0
0
2.31958015e-10
-7.18498265e-27
1.85040606e-19
2.58859259e-10
-8.07298014e-27
9.25204857e-20
2.86037431e-10
0
0
3.12851885e-10
-9.87592119e-27
2.77562418e-19
3.38590714e-10
-1.07442162e-26
0
3.62501909e-10
-5.78269109e-21
-1.85042056e-19
3.8383206e-10
5.78270868e-21
1.85042482e-19
4.01869775e-10
1.15654472e-20
4.15990024e-10
0
-1.85042431e-19
-5.7824128e-21
2.02563938e-12
0
1.15648281e-20
6.12078494e-12
5.78241526e-21
0
1.0389471e-11
-2.5809131e-28
2.31296666e-20
1.50233012e-11
5.78242065e-21
1.15720212e-27
2.02341414e-11
5.78242386e-21
2.31296825e-20
2.62365888e-11
-5.78242827e-21
4.62593842e-20
3.32515604e-11
-1.1564865e-20
4.62594074e-20
4.15081684e-11
0
-4.62594292e-20
5.12435839e-11
-5.78244505e-21
7.25304532e-27
6.27005548e-11
-5.78245131e-21
4.6259516e-20
7.6122247e-11
5.78246032e-21
-9.25191171e-20
9.17440849e-11
-5.78247341e-21
0
1.09782343e-10
5.78248637e-21
-9.25193373e-20
1.30419409e-10
0
9.25195154e-20
1.53785908e-10
-5.78251865e-21
9.25196813e-20
1.79940235e-10
-5.02791964e-27
9.25198149e-20
2.08846545e-10
0
0
2.40352739e-10
-1.73477459e-20
1.3500486e-25
2.74170605e-10
5.7826026e-21
-9.25204392e-20
3.09860687e-10
1.73478975e-20
8.61225074e-26
3.46824816e-10
5.78265765e-21
9.25209963e-20
3.84309153e-10
0
1.85042259e-19
4.21420125e-10
0
9.25213481e-20
4.57154608e-10
0
-1.85043098e-19
4.90444136e-10
-2.95925847e-26
-1.85043711e-19
5.20211045e-10
0
0
5.45432412e-10
0
5.65206005e-10
-1.15656753e-20
1.85043958e-19
-1.15648261e-20
2.52810883e-12
0
-1.15648291e-20
7.64144037e-12
5.78241602e-21
-2.31296643e-20
1.29803111e-11
0
-2.3129672e-20
1.87934806e-11
-5.78242257e-21
4.62593595e-20
2.53569385e-11
0
-2.31296888e-20
3.2952049e-11
-5.78243037e-21
0
4.18708975e-11
-5.78243669e-21
-5.62708357e-27
5.2419429e-11
0
9.25189391e-20
6.49179372e-11
0
-4.62594857e-20
7.96984128e-11
1.15649182e-20
-9.25191138e-20
9.7098276e-11
-1.15649453e-20
0
1.17449964e-10
-5.78248644e-21
9.25193527e-20
1.41065904e-10
0
0
1.68218601e-10
1.15650346e-20
0
1.99115925e-10
-5.24233638e-27
-5.41290037e-26
2.33872199e-10
-5.78256867e-21
9.25201238e-20
2.72476346e-10
-1.15651938e-20
0
3.14759184e-10
-8.60497372e-27
9.25207368e-20
3.60362818e-10
0
-9.25209438e-20
4.08715929e-10
1.15653877e-20
9.25212486e-20
4.59019337e-10
-5.78273841e-21
1.22930256e-25
5.10246398e-10
5.78276389e-21
-9.25220022e-20
5.61162171e-10
-1.15656373e-20
1.85044472e-19
6.10363951e-10
-5.78285791e-21
-1.85045188e-19
6.56343405e-10
-1.15657706e-20
0
6.97567586e-10
-1.15658565e-20
0
7.32572847e-10
-5.78295678e-21
7.60062827e-10
0
3.70092448e-19
5.78241322e-21
3.11246737e-12
0
1.15648298e-20
9.4112058e-12
0
-4.24337256e-28
1.60003216e-11
-5.78242039e-21
-2.31296763e-20
2.31990837e-11
-1.15648483e-20
-4.62593712e-20
3.13630223e-11
0
2.31296964e-20
4.08572187e-11
-9.14218911e-28
4.6259426e-20
5.20640713e-11
-1.15648826e-20
-9.25189163e-20
6.5388389e-11
1.15648972e-20
4.6259513e-20
8.12590352e-11
0
4.62595672e-20
1.0012638e-10
1.15649398e-20
9.25192259e-20
1.22454984e-10
-1.15649709e-20
1.59471751e-26
1.48710657e-10
0
9.25195268e-20
1.79341031e-10
-5.78252306e-21
0
2.14749051e-10
-5.7825471e-21
-1.85039971e-19
2.55259241e-10
-5.78257511e-21
-6.76381181e-26
3.01077265e-10
-5.78260733e-21
0
3.52244292e-10
-9.22502187e-27
9.36574343e-26
4.08588799e-10
-5.78267405e-21
9.252143e-20
4.69679876e-10
5.78271738e-21
-9.25214761e-20
5.34787428e-10
1.4579946e-26
-9.25221496e-20
6.02855883e-10
-1.66344421e-26
-1.85044851e-19
6.72498496e-10
5.78288426e-21
-9.25230169e-20
7.42018836e-10
5.78291756e-21
1.92492345e-25
8.09464166e-10
1.15659602e-20
0
8.72712064e-10
0
0
9.29586974e-10
5.78306072e-21
-1.85048894e-19
9.77998097e-10
-5.78312662e-21
1.0160852e-09
-2.96085345e-26
-1.85049317e-19
-5.78241357e-21
3.79174539e-12
0
-3.19110526e-28
1.14701443e-11
5.78241735e-21
1.15648351e-20
1.95196818e-11
-5.78242184e-21
0
2.83461067e-11
5.78242599e-21
0
3.8403293e-11
0
4.62594106e-20
5.01610819e-11
-5.78243869e-21
6.27377332e-27
6.41160821e-11
5.7824453e-21
0
8.07998759e-11
5.78245647e-21
1.00782729e-26
1.00782668e-10
5.78246619e-21
1.26302477e-26
1.246712e-10
0
0
1.53100673e-10
0
9.25195257e-20
1.86719175e-10
-5.78252228e-21
9.2519788e-20
2.26163071e-10
0
9.25199935e-20
2.72022269e-10
0
-9.25202892e-20
3.24794727e-10
-8.04165598e-27
-9.25207145e-20
3.8483052e-10
-1.15653014e-20
-9.25212186e-20
4.52267069e-10
-5.78269138e-21
9.25215698e-20
5.26958798e-10
-5.7827564e-21
9.2522067e-20
6.08406545e-10
1.15656154e-20
-1.85044889e-19
6.95694391e-10
5.78286173e-21
9.25231711e-20
7.87443632e-10
-5.78294935e-21
1.85047512e-19
8.8179495e-10
0
0
9.76429575e-10
-1.73492565e-20
-2.77573727e-19
1.06863789e-09
-5.78313672e-21
0
1.15543912e-09
-5.78323533e-21
-1.8505182e-19
1.23374855e-09
-5.78329779e-21
1.85052598e-19
1.30058007e-09
-1.15666656e-20
1.35326374e-09
-3.89941021e-26
-1.85053181e-19
1.15648277e-20
4.57833072e-12
0
0
1.38569631e-11
0
-4.62593501e-20
2.36073244e-11
-5.7824235e-21
-4.62593728e-20
3.43396774e-11
-5.78242836e-21
2.18314628e-27
4.66288226e-11
1.15648701e-20
-4.62594371e-20
6.10754034e-11
-5.78244338e-21
7.40920095e-27
7.83193731e-11
1.6425855e-27
4.62595219e-20
9.90538397e-11
-2.11103864e-27
1.20309587e-26
1.24032124e-10
-1.15649559e-20
0
1.54066176e-10
-5.7824972e-21
9.2519504e-20
1.90018563e-10
-5.78251484e-21
-9.25197519e-20
2.32784592e-10
1.15650862e-20
-9.25200562e-20
2.83261835e-10
5.7825779e-21
0
3.42305424e-10
5.78260818e-21
0
4.10667544e-10
1.15653036e-20
-9.25212393e-20
4.88920966e-10
5.7827148e-21
-9.25216362e-20
5.773681e-10
-5.78277602e-21
1.49547496e-25
6.75939381e-10
-1.72293411e-26
1.75527918e-25
7.84087687e-10
1.15658062e-20
-9.25235155e-20
9.00689327e-10
5.78298511e-21
-9.25240094e-20
1.02396589e-09
5.78307334e-21
0
1.15144389e-09
-3.11844232e-26
9.25260574e-20
1.27996974e-09
0
0
1.40579494e-09
0
-1.85055112e-19
1.52473957e-09
0
1.85055639e-19
1.63243143e-09
-5.78357326e-21
-1.8505667e-19
1.72460374e-09
-5.78364711e-21
1.7974208e-09
0
-8.37823922e-25
-5.78241422e-21
5.48218223e-12
0
1.15648339e-20
1.66062136e-11
0
-1.15648393e-20
2.83289887e-11
-5.78242534e-21
-1.88056033e-27
4.12812024e-11
-5.78243261e-21
-2.31297078e-20
5.61864095e-11
-1.10531801e-27
2.31297307e-20
7.38093066e-11
0
8.70239833e-27
9.49670576e-11
-5.78246008e-21
-1.11917322e-26
1.20556687e-10
-5.78247173e-21
1.42839799e-26
1.51567901e-10
5.7824886e-21
4.62597488e-20
1.89079617e-10
5.78250952e-21
4.56331682e-26
2.34254588e-10
5.78253531e-21
4.62600121e-20
2.88320487e-10
-5.78257977e-21
0
3.5253297e-10
-5.78261336e-21
9.25207954e-20
4.28119454e-10
1.15653033e-20
-9.25212941e-20
5.16199816e-10
-5.7827068e-21
-1.30723472e-25
6.17683212e-10
-1.48911261e-26
-1.57516019e-25
7.33141932e-10
0
1.87998362e-25
8.62666394e-10
-5.78295559e-21
-9.25237361e-20
1.00570895e-09
0
9.25251221e-20
1.16093072e-09
5.78313972e-21
-9.25258328e-20
1.32607196e-09
-3.4938033e-26
0
1.49787186e-09
5.78338092e-21
0
1.67206564e-09
-4.53451974e-26
-9.25288889e-20
1.84348479e-09
-1.01236116e-25
0
2.00627709e-09
-5.78375904e-21
0
2.15424679e-09
1.15677435e-20
0
2.28129258e-09
5.78396936e-21
2.38189657e-09
0
-1.8506277e-19
-5.78241461e-21
6.51995217e-12
-5.78241461e-21
-1.1564835e-20
1.97579717e-11
-5.78242077e-21
2.3129684e-20
3.37384028e-11
-5.78242672e-21
0
4.92503694e-11
-9.21620075e-28
-2.31297173e-20
6.72059587e-11
0
-2.31297443e-20
8.85615493e-11
5.78245285e-21
-4.62595382e-20
1.14343103e-10
-5.78246578e-21
4.625961e-20
1.45707241e-10
-5.78248484e-21
4.62597337e-20
1.83950317e-10
0
4.62598336e-20
2.30493937e-10
-5.78253221e-21
9.25199295e-20
2.86892706e-10
-5.78256491e-21
-4.62601223e-20
3.54817051e-10
0
-1.85041411e-19
4.36008342e-10
0
-9.25212742e-20
5.32210892e-10
0
9.25217716e-20
6.45069456e-10
-1.49035459e-26
9.25226467e-20
7.75992082e-10
-1.83081409e-26
0
9.2597745e-10
0
2.35063538e-25
1.09541117e-09
-5.7830897e-21
-9.25253496e-20
1.2838375e-09
5.78318979e-21
0
1.4897253e-09
0
-9.25278298e-20
1.71025749e-09
-5.78353102e-21
1.85059253e-19
1.94118246e-09
-5.78370333e-21
0
2.17677173e-09
5.78382388e-21
-1.85064458e-19
2.40992722e-09
-5.78406216e-21
-3.70133018e-19
2.63247091e-09
5.78416388e-21
1.30913133e-24
2.83562551e-09
-5.78439711e-21
-1.85072196e-19
3.0106585e-09
-5.78453696e-21
3.1496193e-09
-5.78464874e-21
0
-5.78241488e-21
7.69881658e-12
0
-1.15648371e-20
2.33347378e-11
-4.13646659e-28
1.15648441e-20
3.98822098e-11
5.78242877e-21
-2.31297085e-20
5.83284947e-11
5.78243698e-21
4.62594586e-20
7.98011496e-11
-5.78244827e-21
4.62595132e-20
1.05480793e-10
1.95668061e-27
-1.17222727e-26
1.36669557e-10
0
9.25193383e-20
1.74860815e-10
-1.15649896e-20
4.62597886e-20
2.21713858e-10
-5.78251722e-21
2.52575772e-26
2.7907409e-10
-5.61820877e-27
-4.62601042e-20
3.49015215e-10
-1.15651779e-20
-9.25205208e-20
4.33793064e-10
0
-1.85042254e-19
5.35799451e-10
-5.78269075e-21
0
6.57488572e-10
-5.78277655e-21
1.60122143e-25
8.01244657e-10
0
-9.25237556e-20
9.69203188e-10
0
9.25244215e-20
1.16301738e-09
5.78307481e-21
-9.25253581e-20
1.38357865e-09
-5.78325122e-21
-9.25266993e-20
1.63068713e-09
-5.78342223e-21
-9.25281966e-20
1.90269844e-09
-1.15671821e-20
9.25308007e-20
2.19618798e-09
-5.78382754e-21
0
2.50568849e-09
-5.78405653e-21
0
2.82356984e-09
-5.78429634e-21
2.77607592e-19
3.14013265e-09
0
0
3.44397709e-09
5.78468247e-21
-1.850802e-19
3.7226749e-09
5.78489387e-21
-1.85083012e-19
3.9637154e-09
0
4.1556215e-09
5.78522674e-21
-1.85085138e-19
5.78241528e-21
9.01819304e-12
0
-1.15648389e-20
2.73462828e-11
-5.78242281e-21
0
4.67938292e-11
0
-2.78481702e-27
6.85679619e-11
-5.78244141e-21
2.31297421e-20
9.40429807e-11
1.15649045e-20
5.08159203e-27
1.24687627e-10
-2.22123633e-27
0
1.62152941e-10
0
0
2.08315418e-10
0
4.62598664e-20
2.65288954e-10
0
1.38780072e-19
3.35495954e-10
0
-4.62601686e-20
4.21645466e-10
0
-1.38781425e-19
5.26724357e-10
-1.15653539e-20
0
6.54007574e-10
0
9.25224695e-20
8.06915269e-10
-5.78284692e-21
0
9.88859102e-10
-2.16972788e-26
-2.39666945e-25
1.20301869e-09
-2.70403489e-26
-2.95104674e-25
1.45202505e-09
-3.34232262e-26
-1.8505495e-19
1.73759447e-09
-5.78344312e-21
-9.25290996e-20
2.060057e-09
0
-9.2531135e-20
2.41783011e-09
5.78385307e-21
9.25339904e-20
2.80689301e-09
-5.78412054e-21
-9.25357892e-20
3.22033933e-09
-5.78449407e-21
-2.77615713e-19
3.64811369e-09
5.78471895e-21
9.25417393e-20
4.07704689e-09
0
0
4.49130076e-09
-1.21121131e-25
0
4.87329272e-09
-1.33066915e-25
0
5.20508071e-09
-5.78588533e-21
5.47006053e-09
-5.78624182e-21
1.85099924e-19
0
1.04828099e-11
0
-1.15648406e-20
3.18035419e-11
0
-1.15648516e-20
5.44836827e-11
0
-3.10784673e-27
7.99834918e-11
1.73473319e-20
2.31297537e-20
1.09975968e-10
5.78245615e-21
0
1.46278192e-10
5.78247198e-21
9.2519335e-20
1.90938248e-10
5.7824921e-21
-1.99525812e-26
2.46290854e-10
5.78251781e-21
2.60748221e-26
3.15038313e-10
5.78255075e-21
4.62601799e-20
4.00294984e-10
-5.78260035e-21
-4.62603517e-20
5.05580401e-10
0
-4.62606545e-20
6.34890859e-10
5.7827142e-21
0
7.92594561e-10
-1.602734e-26
-9.2523186e-20
9.83344177e-10
5.78290521e-21
-2.30301952e-25
1.21201082e-09
-2.58071017e-26
9.25255594e-20
1.48325522e-09
-5.78322812e-21
-3.57722892e-25
1.80112393e-09
5.7834288e-21
0
2.16863111e-09
-4.9848625e-26
-9.25315386e-20
2.58707577e-09
-5.7839473e-21
6.44171924e-25
3.05526822e-09
0
0
3.56872366e-09
0
-9.25411925e-20
4.118921e-09
-1.15700601e-20
-9.25436492e-20
4.69278992e-09
0
9.25482266e-20
5.27259997e-09
0
0
5.83644661e-09
0
0
6.35949035e-09
0
-1.85114945e-19
6.81597188e-09
0
7.18180411e-09
0
3.70234768e-19
5.78241608e-21
1.20895423e-11
-5.78241627e-21
-7.60215682e-28
3.66970331e-11
0
1.15648533e-20
6.29397376e-11
5.78243524e-21
0
9.25702593e-11
-1.45563741e-27
2.31297653e-20
1.2760724e-10
0
2.31298068e-20
1.70263946e-10
-2.77391008e-27
4.62597032e-20
2.23053827e-10
0
-2.2437215e-26
2.88886055e-10
-1.15650664e-20
-4.62599765e-20
3.71161342e-10
-1.15651437e-20
4.62602635e-20
4.73820748e-10
-5.78261727e-21
-1.85042124e-19
6.01441755e-10
0
-9.25218557e-20
7.59252683e-10
5.78275952e-21
0
9.53036963e-10
5.78286048e-21
0
1.18918503e-09
-5.78301133e-21
-2.71819691e-25
1.4744641e-09
-5.78317631e-21
-3.42945123e-25
1.81549377e-09
0
-9.25293978e-20
2.21837279e-09
0
-1.85062922e-19
2.68811431e-09
-5.78392534e-21
-9.2533738e-20
3.22766581e-09
-5.78427826e-21
0
3.83680248e-09
-5.78459859e-21
2.77625704e-19
4.51092366e-09
-5.78515714e-21
0
5.23984945e-09
0
0
6.0068975e-09
-5.78624082e-21
0
6.7884641e-09
0
0
7.5544465e-09
5.78721897e-21
0
8.26983201e-09
-5.78797808e-21
0
8.89759536e-09
-2.40736075e-25
9.40267097e-09
-5.78888284e-21
1.85143522e-19
-2.01194101e-28
1.38292498e-11
0
0
4.19994436e-11
0
1.15648546e-20
7.21172829e-11
0
-2.31297405e-20
1.06266309e-10
1.15649014e-20
-2.31297713e-20
1.4685817e-10
-2.22633595e-27
0
1.96559681e-10
3.04105527e-27
-4.62597646e-20
2.58428262e-10
-5.78251463e-21
0
3.36042105e-10
0
3.28965998e-26
4.33625717e-10
0
-4.62603831e-20
5.56161404e-10
5.78264194e-21
-9.25213282e-20
7.09497583e-10
-5.78272639e-21
0
9.00354952e-10
5.78280637e-21
9.25232198e-20
1.13638782e-09
5.7829458e-21
1.85049378e-19
1.42627518e-09
0
-9.25262529e-20
1.77929179e-09
-1.15665644e-20
9.25283395e-20
2.20461013e-09
-5.78354544e-21
-9.25314028e-20
2.7111419e-09
0
-9.25346204e-20
3.30694682e-09
1.73525014e-20
7.8833643e-25
3.99762972e-09
-5.78465526e-21
-1.85083915e-19
4.78485437e-09
-5.78517419e-21
1.85096073e-19
5.66462023e-09
5.78563998e-21
9.25523335e-20
6.6253122e-09
5.78644871e-21
9.25598686e-20
7.64616064e-09
-5.78718822e-21
9.2564354e-20
8.69622832e-09
0
0
9.73451898e-09
0
0
1.07118559e-08
-2.82415745e-25
-3.70328982e-19
1.15749572e-08
5.78990328e-21
1.22725288e-08
-5.79077378e-21
0
-2.14737425e-28
1.56860652e-11
-2.14737425e-28
0
4.76629095e-11
-6.5496983e-28
1.15648582e-20
8.19353935e-11
-5.78244018e-21
0
1.20955215e-10
0
5.56876185e-27
1.67573764e-10
5.78246953e-21
0
2.24970357e-10
-3.28564437e-27
-4.62598059e-20
2.96825152e-10
0
-4.62599784e-20
3.87490682e-10
-5.94993694e-27
3.61865445e-26
5.02162662e-10
-5.78261125e-21
4.62604993e-20
6.47045484e-10
0
-4.62608831e-20
8.29504629e-10
-5.78276122e-21
4.6261298e-20
1.05817802e-09
0
0
1.34305389e-09
-2.3900566e-26
0
1.69555463e-09
-3.11416917e-26
9.25273872e-20
2.12808141e-09
0
-9.25298812e-20
2.6534862e-09
-5.19117246e-26
-9.25335745e-20
3.28491913e-09
0
7.51164995e-25
4.03439042e-09
1.15689786e-20
9.39395995e-25
4.9112629e-09
-1.15700421e-20
-9.25467152e-20
5.9208176e-09
5.78559034e-21
-9.25529747e-20
7.06100427e-09
-5.78664201e-21
1.71350938e-24
8.31944784e-09
0
0
9.6711924e-09
-5.7885464e-21
1.85151905e-19
1.10765823e-08
1.15781444e-20
0
1.24805236e-08
-5.7904129e-21
1.85183823e-19
1.38143401e-08
-1.15825444e-20
0
1.50012737e-08
-5.79239514e-21
1.59657817e-08
-5.79317292e-21
0
-5.78241727e-21
1.76368698e-11
0
-1.15648465e-20
5.36173051e-11
0
2.31297172e-20
9.22739452e-11
0
2.31297489e-20
1.36460686e-10
5.78245495e-21
2.31297951e-20
1.89512261e-10
-2.5371484e-27
2.31298415e-20
2.55176968e-10
-5.78249957e-21
0
3.37834334e-10
-5.78253105e-21
0
4.42716801e-10
5.78257247e-21
-9.25205189e-20
5.76138056e-10
-5.7826271e-21
1.38781819e-19
7.45725393e-10
-1.1412157e-26
-4.62610358e-20
9.60647008e-10
5.78277851e-21
-4.62615055e-20
1.23181539e-09
-5.78291751e-21
9.25246525e-20
1.57204506e-09
-5.78307882e-21
-9.25265314e-20
1.99612309e-09
-3.4760211e-26
-9.25289336e-20
2.52046467e-09
5.7835096e-21
0
3.16294164e-09
0
-9.25351385e-20
3.94213252e-09
0
1.8508114e-19
4.87563066e-09
-5.78486294e-21
9.25463762e-20
5.97887199e-09
5.78539907e-21
-9.25519704e-20
7.26256828e-09
0
-9.25598547e-20
8.72846225e-09
5.78707749e-21
-9.2564747e-20
1.03652089e-08
0
0
1.21444324e-08
-1.15792363e-20
0
1.40169808e-08
5.79063924e-21
0
1.5910299e-08
5.79240521e-21
0
1.77293802e-08
0
0
1.93636031e-08
1.15897404e-20
2.07006419e-08
-5.79620791e-21
0
-5.78241745e-21
1.96511103e-11
-2.32943321e-28
1.15648463e-20
5.97696071e-11
5.78242879e-21
1.51736474e-27
1.02972266e-10
-5.78244274e-21
-4.40517622e-27
1.52543738e-10
-1.85997643e-27
6.15457138e-27
2.12339562e-10
-2.6399369e-27
-8.44028536e-27
2.86727076e-10
5.78249984e-21
0
3.80854938e-10
0
4.62600412e-20
5.00934195e-10
-5.78258118e-21
4.62603405e-20
6.54536579e-10
0
4.62606408e-20
8.50909901e-10
-5.78271804e-21
-9.25222604e-20
1.10130262e-09
-5.7828214e-21
9.25234765e-20
1.41927844e-09
5.78295781e-21
0
1.82098651e-09
0
-9.25273178e-20
2.3253248e-09
-5.78333279e-21
-9.25300607e-20
2.95388506e-09
5.78362444e-21
-9.25335812e-20
3.73070035e-09
-6.56602915e-26
-9.25372762e-20
4.68122317e-09
-5.78456528e-21
-1.8508535e-19
5.83113615e-09
-5.78519587e-21
9.25506561e-20
7.20480918e-09
0
9.25607886e-20
8.82113255e-09
5.78713326e-21
-9.25693725e-20
1.06885009e-08
-5.78789612e-21
9.25788013e-20
1.27995682e-08
-2.81529352e-25
9.2597864e-20
1.5125022e-08
-1.15818481e-20
-9.26060921e-20
1.7607154e-08
5.79245736e-21
1.8524209e-19
2.01534564e-08
-4.90713647e-25
0
2.26345871e-08
5.79670427e-21
1.85308611e-19
2.48914062e-08
0
2.67546722e-08
-7.00137901e-25
1.85330214e-19
5.78241729e-21
2.16910655e-11
-2.3591723e-28
1.15648476e-20
6.60046507e-11
0
-1.54109279e-27
1.138302e-10
5.78244195e-21
2.31297548e-20
1.68903669e-10
-5.78245924e-21
6.28793144e-27
2.35629443e-10
-5.78247942e-21
-6.93895845e-20
3.19033245e-10
-5.78250569e-21
-4.62598639e-20
4.25090059e-10
-5.11571353e-27
4.62600675e-20
5.61073512e-10
-5.78257983e-21
-4.62603398e-20
7.35936561e-10
0
-4.62607036e-20
9.60727293e-10
5.78271884e-21
-4.6261267e-20
1.24903506e-09
-1.1565667e-20
-4.62620428e-20
1.61744953e-09
5.7829661e-21
9.25253701e-20
2.08599635e-09
-5.7831838e-21
-3.73079925e-25
2.67848532e-09
5.78344069e-21
-9.25310416e-20
3.42267171e-09
5.78372342e-21
9.25343565e-20
4.35010635e-09
0
0
5.4954218e-09
0
-9.25455316e-20
6.89494873e-09
-5.78551144e-21
1.43946453e-24
8.5845994e-09
-5.7864321e-21
-9.25650662e-20
1.05960582e-08
0
2.3396986e-24
1.29499419e-08
1.15774789e-20
0
1.564685e-08
1.15810866e-20
0
1.86610947e-08
5.79230598e-21
9.26291397e-20
2.19317629e-08
5.7945124e-21
1.85289894e-19
2.53472795e-08
5.79694458e-21
-1.21362714e-23
2.87364545e-08
-2.78874318e-21
-1.36974963e-23
3.1872103e-08
-5.56170461e-21
3.4494864e-08
2.60091185e-22
3.70812579e-19
0
2.37126507e-11
5.78241747e-21
0
7.21875304e-11
5.78242888e-21
2.31297219e-20
1.24612118e-10
-1.1564886e-20
-2.31297589e-20
1.85183683e-10
-1.88275482e-27
0
2.58870733e-10
5.7824766e-21
-2.31298563e-20
3.5138154e-10
5.78250582e-21
0
4.69555829e-10
0
4.62600764e-20
6.2179023e-10
-5.78258145e-21
4.62604012e-20
8.18512742e-10
0
-4.62606753e-20
1.07271566e-09
-5.78275083e-21
8.05681955e-26
1.40054784e-09
0
-4.62620299e-20
1.82195409e-09
0
9.25256556e-20
2.36132896e-09
0
9.25280651e-20
3.04812268e-09
0
0
3.91729518e-09
5.78373851e-21
0
5.00946123e-09
-5.78433292e-21
-9.25418319e-20
6.37049121e-09
-5.78486027e-21
-1.85095976e-19
8.05028898e-09
-1.33613057e-25
-9.25570445e-20
1.01003531e-08
-1.15736565e-20
1.85141142e-19
1.25701613e-08
0
2.65299079e-24
1.54987805e-08
5.78954359e-21
3.37486101e-24
1.89044938e-08
0
-9.26211768e-20
2.27764951e-08
-1.158833e-20
5.24793511e-24
2.70594324e-08
5.79675948e-21
-1.85358581e-19
3.16305153e-08
-2.77627551e-21
0
3.62771161e-08
-2.01791735e-20
-1.85476942e-19
4.06821748e-08
-1.16146362e-20
4.44407898e-08
-2.32438423e-20
0
-1.15648346e-20
2.56667906e-11
0
0
7.81677901e-11
-6.91606458e-28
-1.48397544e-27
1.35054139e-10
0
-2.31297557e-20
2.00981615e-10
-1.15649152e-20
6.11987293e-27
2.81482263e-10
-2.61498345e-27
8.48421492e-27
3.82951603e-10
0
-4.62598803e-20
5.13107562e-10
-5.78253846e-21
-3.19153566e-26
6.81497557e-10
5.78257863e-21
4.62603897e-20
9.00075592e-10
-5.78264922e-21
-4.62607272e-20
1.18386619e-09
0
9.25225652e-20
1.55172431e-09
-5.78285208e-21
0
2.02718782e-09
0
0
2.63939898e-09
-5.78322187e-21
-9.2528256e-20
3.42404017e-09
-5.78350701e-21
0
4.42418309e-09
0
0
5.69088738e-09
5.78431842e-21
-9.66414767e-25
7.28329945e-09
5.78496585e-21
-9.25497161e-20
9.26790588e-09
5.78581872e-21
-9.25598095e-20
1.17164794e-08
-1.86902147e-25
-1.85145624e-19
1.470218e-08
-2.46564196e-25
0
1.82915506e-08
5.7905491e-21
0
2.25354687e-08
-5.79299144e-21
0
2.74570257e-08
-8.58394792e-21
6.17380945e-24
3.30270541e-08
2.55199388e-22
1.5423712e-23
3.91347727e-08
-2.59711246e-20
1.8551296e-19
4.55476302e-08
-1.74266635e-20
-1.85602615e-19
5.18492707e-08
-2.3256572e-20
5.7399613e-08
-1.74582646e-20
1.85654509e-19
0
2.75013577e-11
-2.12164439e-28
2.31296887e-20
8.37853489e-11
1.15648546e-20
1.15648583e-20
1.44874527e-10
5.78244019e-21
0
2.15865761e-10
0
-4.62595726e-20
3.02835705e-10
-5.78247379e-21
8.04471623e-27
4.12848782e-10
-3.45755583e-27
4.62598295e-20
5.54484229e-10
0
0
7.38427159e-10
0
4.17573583e-26
9.78153037e-10
5.78263003e-21
4.62607887e-20
1.29073123e-09
5.7827106e-21
0
1.69776737e-09
5.78283713e-21
-9.25239468e-20
2.22649363e-09
5.78299235e-21
0
2.91099785e-09
5.78317161e-21
-9.25285119e-20
3.79355279e-09
0
-9.25320535e-20
4.92596169e-09
-5.78387375e-21
-2.77609722e-19
6.37077175e-09
5.78439271e-21
-9.25431926e-20
8.2021203e-09
5.78498265e-21
9.25516935e-20
1.05058699e-08
1.15718944e-20
-9.25612032e-20
1.33785601e-08
0
-1.85150928e-19
1.69245607e-08
-2.57014394e-25
9.25973087e-20
2.12506081e-08
5.79103362e-21
1.85241313e-19
2.64578065e-08
4.53611437e-25
0
3.26300584e-08
-2.3188632e-20
-1.85381531e-19
3.98122068e-08
-1.74053692e-20
1.85502122e-19
4.79671633e-08
-5.80763658e-21
0
5.69087302e-08
-1.74445755e-20
-2.93919116e-23
6.6166001e-08
-1.16474272e-20
7.47433811e-08
-2.33267764e-20
3.71792784e-19
5.78241624e-21
2.91635797e-11
0
-7.93427767e-28
8.88779211e-11
0
-1.15648551e-20
1.53786812e-10
5.78243754e-21
-2.31297364e-20
2.29395176e-10
5.78244943e-21
-2.31297687e-20
3.22285489e-10
-1.15649342e-20
6.938948e-20
4.40147329e-10
0
0
5.9237023e-10
5.78252195e-21
-4.62599709e-20
7.90716955e-10
0
4.62602638e-20
1.05011456e-09
-5.78262125e-21
4.62606262e-20
1.38959872e-09
-5.78269965e-21
9.25222438e-20
1.83344315e-09
5.78279123e-21
4.62616005e-20
2.41249871e-09
-5.78295359e-21
-9.25251769e-20
3.16575244e-09
1.15662784e-20
-9.25279717e-20
4.14209245e-09
-4.03079945e-26
-9.25314041e-20
5.4022268e-09
-5.7837994e-21
-6.93769461e-25
7.02065167e-09
-7.51574644e-26
0
9.08749776e-09
5.78488905e-21
0
1.17100138e-08
-5.78592023e-21
-1.8512144e-19
1.50133976e-08
-5.78717515e-21
-1.85151335e-19
1.91407052e-08
0
9.26022515e-20
2.42517286e-08
-3.47074281e-25
0
3.05211166e-08
-1.43595957e-20
-1.85320879e-19
3.81357444e-08
-1.43499169e-20
9.27115088e-20
4.72898814e-08
-1.16079675e-20
3.7117157e-19
5.81601633e-08
-1.16236343e-20
1.85783427e-19
7.07960333e-08
-1.74662198e-20
-1.86033795e-19
8.48581419e-08
-2.33442637e-20
9.89027046e-08
-1.17042166e-20
-1.86243342e-19
0
3.0602782e-11
-5.78241578e-21
-6.8749321e-28
9.32894694e-11
0
-1.0999737e-27
1.61514846e-10
-8.93733456e-28
2.31297246e-20
2.41143191e-10
5.78244445e-21
-2.31297574e-20
3.39203927e-10
-1.95658746e-27
2.31298079e-20
4.63942e-10
5.78247815e-21
-1.77931088e-26
6.25470719e-10
5.78250036e-21
-4.6259912e-20
8.36520803e-10
5.78253973e-21
-9.25202597e-20
1.11333081e-09
-1.15651842e-20
1.38781408e-19
1.47672422e-09
-5.78266544e-21
9.25216967e-20
1.95341771e-09
-1.38748452e-26
-4.626161e-20
2.57760186e-09
-1.15657854e-20
9.25244715e-20
3.39282665e-09
5.78304702e-21
-3.3427187e-25
4.4542081e-09
0
-1.85059843e-19
5.83094802e-09
-5.78366085e-21
-6.2988173e-25
7.60912991e-09
5.78412634e-21
1.85079835e-19
9.89473382e-09
5.78467038e-21
-1.8509566e-19
1.28168366e-08
-5.78563665e-21
-9.25578809e-20
1.65311108e-08
0
-9.25725664e-20
2.12241608e-08
5.78824137e-21
-9.25930253e-20
2.71201795e-08
-8.57265031e-21
9.26262446e-20
3.44930928e-08
-2.01453105e-20
9.26638358e-20
4.36893565e-08
-1.73948175e-20
-1.85451958e-19
5.51666308e-08
-1.74147219e-20
0
6.95446447e-08
-1.74447759e-20
3.71471396e-23
8.75858656e-08
-1.74930301e-20
1.86359627e-19
1.09665242e-07
-1.17079541e-20
1.3385251e-07
-2.35268874e-20
3.73762964e-19
-5.782415e-21
3.1773263e-11
0
-1.15648373e-20
9.68790866e-11
-5.78242204e-21
-1.15648457e-20
1.67808645e-10
5.78242919e-21
-2.63883391e-27
2.50722294e-10
0
0
3.53018726e-10
0
-2.31297786e-20
4.83403807e-10
5.78246603e-21
0
6.5259412e-10
3.13677329e-27
-4.62598017e-20
8.74130623e-10
0
2.79275246e-26
1.16535453e-09
5.78256315e-21
3.85705378e-26
1.54859957e-09
0
4.62606342e-20
2.05265692e-09