/*--------------------------------*- C++ -*----------------------------------*\
| =========                 |                                                 |
| \\      /  F ield         | foam-extend: Open Source CFD                    |
|  \\    /   O peration     | Version:     4.1                                |
|   \\  /    A nd           | Web:         http://www.foam-extend.org         |
|    \\/     M anipulation  |                                                 |
\*---------------------------------------------------------------------------*/
FoamFile
{
    version     2.0;
    format      ascii;
    class       volScalarField;
    location    "0.25";
    object      p;
}
// * * * * * * * * * * * * * * * * * * * * * * * * * * * * * * * * * * * * * //

dimensions      [0 2 -2 0 0 0 0];

internalField   nonuniform List<scalar> 
35840
(
79.3926857
64.7483779
55.6833845
51.3630084
48.412095
46.072718
44.232628
42.7176129
41.3916485
40.1844565
39.0586553
37.9913229
36.9677751
35.9783243
35.0161676
34.076215
33.154492
32.2478104
31.3535852
30.4697201
29.5945221
28.7266476
27.8650602
27.0089956
26.1579306
25.3115559
24.4697495
23.6325497
72.5126877
62.1069487
54.9213589
51.1414758
48.3724809
46.0899389
44.2698341
42.7649288
41.4409591
40.2307681
39.100354
38.0281677
36.9999392
36.0061762
35.0401588
34.0967966
33.1720758
32.2627699
31.3662569
30.480394
29.6034492
28.7340502
27.8711404
27.0139388
26.16191
25.3147351
24.4722844
23.6345894
69.3221051
60.5579675
54.2040921
50.7023449
48.1177857
45.9610213
44.2130902
42.7509715
41.4524814
40.2563917
39.1331676
38.0641137
37.0366231
36.0422343
35.0748508
34.1297264
33.2030269
32.2916141
31.3929059
30.5047863
29.6255398
28.7538037
27.8885324
27.0289615
26.1745767
25.3250848
24.4803857
23.6405426
67.7051327
59.3696785
53.4713644
50.244918
47.8523248
45.8346149
44.1747467
42.7649095
41.4966189
40.3166823
39.200842
38.1339717
37.1057139
36.1089779
35.1384696
34.1898727
33.2595567
32.3444598
31.4420135
30.5500878
29.6669476
28.7912198
27.9218564
27.058104
26.1994744
25.3457146
24.4967762
23.6527834
66.604543
58.4017877
52.7971252
49.8128141
47.5909611
45.7015751
44.1331521
42.783188
41.5520924
40.3939983
39.2897705
38.227895
37.2004951
36.2021157
35.2284997
34.2759563
33.3412077
32.4213726
31.5139607
30.6168634
29.7283444
28.8470265
27.9718635
27.1021191
26.2373416
25.3773344
24.5221244
23.6719264
65.8069972
57.675251
52.2413282
49.4212719
47.3297569
45.5476576
44.0640607
42.7759581
41.5877221
40.4583071
39.3724343
38.3215387
37.2999641
36.3038585
35.3300776
34.3756787
33.4378702
32.5140742
31.6019813
30.6995856
29.8052136
28.9175296
28.0355262
27.1585173
26.2861196
25.4182273
24.5549802
23.6967263
65.2079336
57.1171511
51.7820099
49.0709668
47.0778006
45.3824356
43.9717865
42.7411358
41.5962436
40.4986817
39.43563
38.4005943
37.3896007
36.4000988
35.4299118
34.4767958
33.5384515
32.6126389
31.697275
30.790506
29.8907651
28.9967956
28.1076668
27.2227792
26.3418559
25.4649232
24.5922808
23.7244619
64.7416193
56.675163
51.401146
48.7643674
46.8447036
45.2177184
43.8672795
42.6868462
41.5823331
40.5164934
39.4778999
38.4613798
37.4641074
36.4844688
35.5210193
34.5720705
33.635733
32.710062
31.7931813
30.8833871
29.9792209
29.0795148
28.1834298
27.2904736
26.4005036
25.5137148
24.6306136
23.7519742
64.3698886
56.319243
51.0853881
48.5000575
46.6348925
45.0612427
43.759795
42.622168
41.5538333
40.517889
39.5035843
38.5065179
37.5245921
36.5568167
35.6022543
34.6596129
33.7273022
32.8035934
31.8867641
30.9752185
30.0675753
29.1627384
28.2599504
27.3588269
26.4593726
25.5619794
24.667403
23.7767171
64.0689778
56.0292263
50.8229075
48.2740374
46.4496079
44.917668
43.6560159
42.5545497
41.5180588
40.5095329
39.5184398
38.5407616
37.5748155
36.6199887
35.6756616
34.740794
33.813982
32.8936246
31.9780825
31.0658057
30.1554415
29.2459252
28.3365513
27.4270263
26.5175031
25.6085912
24.7013383
23.7971802
63.8230159
55.7910744
50.6043749
48.0820798
46.2885749
44.7895118
43.5602965
42.4893342
41.4806787
40.4969858
39.5276634
38.5688115
37.6189333
36.677603
35.7443626
34.8182964
33.8980803
32.9821525
32.0688743
31.1566686
30.2441462
29.3302152
28.4141743
27.4957894
26.57535
25.6536967
24.7322136
23.8127746
63.6209312
55.5947953
50.4225751
47.9202002
46.1506078
44.6777667
43.4752002
42.4300794
41.445762
40.4844777
39.5354207
38.5946385
37.6606582
36.7330972
35.8115336
34.8950647
33.982349
33.0717721
32.1616064
31.2501635
30.3359354
29.4177249
28.4947658
27.566831
26.6343191
25.6983106
24.7605752
23.823519
63.4546902
55.4330117
50.2718211
47.7847904
46.0340737
44.5824702
43.4020565
42.3790169
41.416095
40.475081
39.5448838
38.6213975
37.7030654
36.7894441
35.8800482
34.9738955
34.069537
33.1652106
32.2590061
31.3490252
30.4335377
29.5111378
28.580898
27.6425181
26.6964576
25.7440321
24.7874505
23.8297684
63.3182452
55.3000895
50.1475517
47.672662
45.9371777
44.5030852
43.3413603
42.3374163
41.3934815
40.4709351
39.558381
38.651509
37.7486135
36.849118
35.9524011
35.0573258
34.1622488
33.2651703
32.3638958
31.4562018
30.5400089
29.6135672
28.6756533
27.7257744
26.7643659
25.7929518
24.8142343
23.832067
63.2068874
55.1915908
50.046033
47.5810068
45.8580985
44.4387296
43.293041
42.3058545
41.3789824
40.473443
39.5775478
38.6867664
37.7992104
36.9141288
36.0307154
35.1476142
34.2629152
33.3742924
32.4791582
31.574832
30.6587288
29.7285779
28.7826724
27.8201486
26.8412763
25.8477209
24.8427219
23.8311167
63.1168345
55.1039151
49.9641394
47.507335
45.7950496
44.3883163
43.2566426
42.2844049
41.3730919
40.4834216
39.6034454
38.7284209
37.8562711
36.9860557
36.1167511
35.2467383
34.3737816
33.4951456
32.6077366
31.7082668
30.7934558
29.8602816
28.9062949
27.9299965
26.9312594
25.9117494
24.8752582
23.8278331
63.0449589
55.0340596
49.8991938
47.4494126
45.7463018
44.3506341
43.2314392
42.2727645
41.37586
40.5012079
39.6366435
38.7772415
37.9207556
37.0660571
36.2118964
35.3563717
34.4968786
33.6302001
32.7526232
31.8600881
30.9483907
30.0134632
29.0517579
28.0607491
27.0395411
25.9895298
24.9149995
23.8234689
62.9886043
54.9794546
49.8488528
47.4052071
45.7101838
44.3243928
43.2165066
42.2703381
41.3869751
40.526729
39.6772747
38.8335521
37.9931764
37.1548554
36.3171343
35.4778325
34.6339594
33.7817637
32.9168103
32.034094
31.1282234
30.1937134
29.225436
28.2192685
27.1729525
26.0871184
24.9663241
23.8198281
62.9454606
54.9378504
49.8110237
47.3728429
45.6850762
44.308247
43.210767
42.2762926
41.4058172
40.5595494
39.7250717
38.8972409
38.0735841
37.2527009
36.4329786
35.6119957
34.7863925
33.9518655
33.1031817
32.2342264
31.3381312
30.4075425
29.4351127
28.4143011
27.3405504
26.2128417
25.0354587
23.8195962
62.9134782
54.9072388
49.783805
47.3505669
45.6694018
44.3008091
43.213018
42.2895915
41.4314945
40.5989067
39.77938
38.9677524
38.1615403
37.3593135
36.5593825
35.7591646
34.9549989
34.1420679
33.3143187
32.4644021
31.5836867
30.6624329
29.6902567
28.6570445
27.5544898
26.3783742
25.1314993
23.8268912
62.8908097
54.8858
49.765447
47.3367252
45.6616208
44.3006595
43.2219504
42.309023
41.4628797
40.6437288
39.8391599
39.0440773
38.2560782
37.4738074
36.695619
35.918901
35.1398276
34.3531886
33.5521837
32.7281956
31.8706043
30.96675
30.0022275
28.9617886
27.8311926
26.6004009
25.2682454
23.848571
62.8757729
54.8718688
49.7543257
47.3297495
45.660229
44.3063526
43.2361694
42.3332357
41.4986287
40.6926466
39.9029976
39.1247405
38.3556601
37.5946083
36.8401433
36.0898174
35.3398622
34.5849133
33.817643
33.0283031
32.2042233
31.3293806
30.3842729
29.3465018
28.1926906
26.902649
25.4664792
23.8958961
62.8668295
54.8639152
49.7489298
47.3281531
45.6637596
44.3164342
43.2542317
42.3607582
41.5372027
40.7440237
39.9691212
39.2077989
38.4581467
37.7193769
36.9904518
36.2693445
35.5526669
34.8352882
34.1097865
33.3656996
32.5885764
31.758908
30.8511656
29.8334498
28.6687022
27.3192699
25.7569044
23.9839019
62.8625785
54.8605358
49.7478567
47.3305299
45.6708001
44.3294773
43.2746628
42.3900241
41.576912
40.7959969
40.0354351
39.2908624
38.5607928
37.8449624
37.1429644
36.4535045
35.7739984
35.1001072
34.4250198
33.738384
33.0248013
32.2618529
31.4177716
30.4492358
29.3003546
27.905187
26.1979051
24.1489576
62.8617664
54.8604523
49.749814
47.335582
45.68002
44.3440985
43.2959824
42.4194259
41.6159707
40.8465347
40.0995818
39.3711531
38.6602918
37.9674132
37.2929713
36.6367443
35.9974495
35.3722571
34.7559699
34.1396814
33.5086833
32.8393517
32.0948695
31.2198809
30.1355352
28.7363152
26.8966284
24.5052231
62.863249
54.8625285
49.7536537
47.3421243
45.690182
44.3589808
43.3167598
42.4473734
41.652566
40.8935208
40.159039
39.4456127
38.7528886
38.0820808
37.4346986
36.8119084
36.2142356
35.6411641
35.0903626
34.5562619
34.0275452
33.482878
32.8839373
32.164377
31.2151796
29.8665106
27.9035534
25.0532555
62.8660149
54.865786
49.7583792
47.3490951
45.7001709
44.3729242
43.3356673
42.4723599
41.684944
40.9348629
40.2112545
39.5110696
38.83458
38.1838509
37.5615552
36.9704591
36.4132909
35.8925691
35.4101198
34.96598
34.5561325
34.1680411
33.7717239
33.3018757
32.6223736
31.4575737
29.342456
25.336061
62.8692465
54.869408
49.7631433
47.3556026
45.7090357
44.3848882
43.3515364
42.4930376
41.7115085
40.9686211
40.2538161
39.5644614
38.9014074
38.2675242
37.6666173
37.1030635
36.5819092
36.1090495
35.6912875
35.3360833
35.0506325
34.8394658
34.6983753
34.5997086
34.4558837
34.0276607
32.6071384
27.3283827
72.6719212
62.2298229
54.9941296
51.1656482
48.3609639
46.0535823
44.2168105
42.70252
41.3751679
40.165918
39.0392362
37.9723604
36.9501318
35.9624616
35.0022727
34.064289
33.1444244
32.2394398
31.3467338
30.4642078
29.5901763
28.7233062
27.8625714
27.0072163
26.1567258
25.3107972
24.4693142
23.6323208
64.9521918
59.5579434
54.6370611
51.3632068
48.6924668
46.3797937
44.4852712
42.9141553
41.5414736
40.2970702
39.1442223
38.0581578
37.0214637
36.0224834
35.0532032
34.1077535
33.1816515
32.2713934
31.3741947
30.4878216
29.6104869
28.7407808
27.8776187
27.0201995
26.1679717
25.3206036
24.4779545
23.6400468
61.7118199
58.2086635
54.2157922
51.1456496
48.6114541
46.4036924
44.5502351
42.9887401
41.6163186
40.3682071
39.2100239
38.1185712
37.076927
36.0734533
35.1000855
34.1508873
33.2213005
32.3077552
31.4074163
30.5180151
29.6377402
28.7651657
27.8991995
27.0390417
26.1841492
25.3342052
24.4890894
23.6488484
60.1353605
57.0527462
53.5392645
50.7494096
48.4045268
46.3372457
44.5677715
43.0494768
41.6982317
40.45858
39.301243
38.2067134
37.160316
36.1515315
35.1728183
34.2184609
33.2839546
32.3657003
31.4608038
30.5669346
29.6822291
28.8052244
27.9348086
27.0701794
26.2108087
25.3564103
24.5069075
23.6624006
59.0294512
56.0536205
52.8547062
50.3352934
48.1643351
46.2208397
44.539914
43.0794544
41.7639516
40.5451984
39.3985894
38.3080723
37.261543
36.2501912
35.267534
34.3084868
33.3688961
32.4453353
31.534979
30.6355109
29.7450597
28.8621513
27.9856712
27.1148301
26.2491326
25.3883453
24.532463
23.6816728
58.2220841
55.3085826
52.2886359
49.9476027
47.9071543
46.0658178
44.4669715
43.0675001
41.7949039
40.6056357
39.4785124
38.3999916
37.3600404
36.3514675
35.3689517
34.4082059
33.4656071
32.5380667
31.6229653
30.7181084
29.8216982
28.932312
28.0488823
27.1706754
26.2972689
25.4285228
24.5645473
23.7056636
57.6149296
54.7370175
51.8168464
49.5926524
47.6530056
45.8965822
44.369018
43.0261655
41.7966421
40.6395774
39.536082
38.4743536
37.4458382
36.4445834
35.466228
34.5071952
33.5643753
32.635041
31.71682
30.8076861
29.9059593
29.0103094
28.1197547
27.2336562
26.3517042
25.4738969
24.6005092
23.7320519
57.1416311
54.2841589
51.4248359
49.2803203
47.4172329
45.7289025
44.2605825
42.9672847
41.7777664
40.6523972
39.5736623
38.5309223
37.5166325
36.5257116
35.5545059
34.5999857
33.6594525
32.7304811
31.810916
30.898885
29.9928238
29.0914993
28.194027
27.2998802
26.4088889
25.5212252
24.6373753
23.7580958
56.7642164
53.9200775
51.1006068
49.0111547
47.2050411
45.5703593
44.1506866
42.8999012
41.7463521
40.6507991
39.5964374
38.5733436
37.5746298
36.5957999
35.6336916
34.6856649
33.7493177
32.8224423
31.9030373
30.9893388
30.0798642
29.173454
28.269307
27.367007
26.466534
25.5682591
24.6729217
23.7815824
56.4588474
53.623942
50.8317009
48.7811494
47.0176909
45.4253124
44.0455046
42.830857
41.7090978
40.6409308
39.609811
38.606184
37.6235452
36.657758
35.7059717
34.7657963
33.8350158
32.911551
31.9934804
31.0790875
30.1669193
29.2558474
28.3451216
27.4344159
26.5238598
25.6140458
24.7060075
23.8011684
56.2094226
53.3811373
50.6082541
48.5860118
46.8549589
45.2960941
43.9489701
42.7649383
41.6710521
40.627734
39.6184148
38.633658
37.6671324
36.7148816
35.7742161
34.8428711
33.9187126
32.9996986
32.0839078
31.1695983
30.2552795
29.3397929
28.4223926
27.5028132
26.5813201
25.6587362
24.7364321
23.8162724
56.0046511
53.1812777
50.4226591
48.4216112
46.7156032
45.1835362
43.8633631
42.705345
41.6358822
40.6150188
39.6260026
38.6593497
37.7087501
36.7702898
35.8413173
34.919584
34.0029384
33.0892843
32.1766142
31.263074
30.347053
29.4272865
28.5029624
27.5738196
26.6402319
25.7032611
24.7646642
23.8268395
55.8363144
53.0166975
50.2689251
48.2841807
46.5979196
45.0875815
43.7898636
42.6541172
41.6061546
40.6056209
39.6355057
38.6861791
37.751249
36.8267435
35.9099514
34.9985461
34.0902673
33.1828739
32.2741769
31.3621108
30.4448414
29.5208935
28.589291
27.6496972
26.7025444
25.7491278
24.7916433
23.8331402
55.6982159
52.8815524
50.1422703
48.1704064
46.5000579
45.0076415
43.7288915
42.6124276
41.5835604
40.6015574
39.6491269
38.7164425
37.7969674
36.886602
35.9825019
35.0821848
34.1831997
33.2830708
32.379324
31.4695677
30.5516164
29.623648
28.6843872
27.7333013
26.7707941
25.7983663
24.8187051
23.8356582
55.5855315
52.7712522
50.0388031
48.0773856
46.4201537
44.9428028
43.6803382
42.5808064
41.5691068
40.6041734
39.6684422
38.7518748
37.8477577
36.9518212
36.0610359
35.1727047
34.2841157
33.3924673
32.4948919
31.5885394
30.6707169
29.7390786
28.791861
27.8281552
26.848193
25.8536103
24.8476275
23.8350752
55.4943915
52.6820861
49.9552843
48.002558
46.356388
44.8919592
43.6437295
42.5593064
41.5632652
40.6142614
39.6944885
38.7937051
37.9050139
37.0239553
36.1472889
35.2720628
34.3952413
33.5136136
32.6238065
31.7223627
30.805892
29.8712939
28.9160568
27.9386275
26.9388318
25.9182953
24.8807811
23.8323267
55.4216026
52.6109712
49.888955
47.9436381
46.3070066
44.853887
43.6183307
42.5476168
41.5660775
40.6321503
39.7278296
38.8426974
37.9696851
37.1041529
36.2426445
35.3819289
34.5186026
33.6489762
32.7690594
31.8746237
30.9613537
30.0250993
29.0622432
28.0701946
27.0479947
25.996981
24.9213917
23.8287286
55.3644604
52.5552799
49.8374135
47.8985557
46.2703205
44.8272878
43.6032137
42.5451403
41.5772312
40.6577692
39.7686009
38.8991704
38.04228
37.1931383
36.348088
35.5036216
34.6559543
33.8008672
32.9336512
32.0491348
31.1418156
30.2061228
29.2368501
28.2297941
27.1826097
26.0958386
24.973961
23.8262013
55.3206201
52.5127211
49.7985252
47.8654083
46.2446971
44.8108108
43.5972992
42.5510451
41.5961111
40.6906886
39.8165309
38.9630102
38.122854
37.2911663
36.4641351
35.6380187
34.8086696
33.9713231
33.120478
32.2498585
31.3524883
30.4209267
29.4477385
28.4262812
27.3518748
26.2233615
25.0448951
23.8275976
55.2880078
52.4812577
49.7703597
47.8424243
46.2285506
44.8030651
43.5993854
42.5643004
41.6218332
40.7301406
39.8709618
39.0336666
38.2109726
37.3979579
36.5907413
35.785427
34.9775747
34.1619142
33.3321342
32.4807347
31.5989841
30.6770588
29.7044793
28.6710035
27.5681453
26.3914671
25.1435215
23.8371726
55.2647602
52.4590506
49.7511479
47.8279377
46.2203354
44.8026301
43.6081693
42.5837022
41.6532618
40.7750482
39.9308594
39.1101326
38.305669
37.5126286
36.7271814
35.945411
35.1627221
34.3734645
33.5705946
32.7453606
31.8870594
30.982958
30.018553
28.9784382
27.848124
26.6172291
25.2840792
23.8621253
55.2491855
52.4444225
49.739254
47.8203733
46.2185455
44.8080669
43.6222635
42.6078882
41.6890463
40.8240468
39.9948104
39.1909322
38.4054056
37.6336042
36.871911
36.1165833
35.3630964
34.6056625
33.8367328
33.0464512
32.2220928
31.3475844
30.403327
29.3667229
28.2140295
26.9245638
25.4875637
23.9142446
55.2397404
52.4358369
49.7331612
47.818242
46.22172
44.8179276
43.6402116
42.635378
41.7276521
40.8754996
40.0610411
39.2741209
38.5080418
37.7585443
37.0224243
36.2963716
35.5762578
34.8565508
34.1296384
33.3849904
32.6081479
31.7795949
30.8737182
29.858327
28.6956563
27.3470035
25.7821256
24.0034569
55.235017
52.4318878
49.7314691
47.8201455
46.2284499
44.8307725
43.6605285
42.6646104
41.7673884
40.9275414
40.1274543
39.3573069
38.6108299
37.8842943
37.1751361
36.4807911
35.7979533
35.1219108
34.4457027
33.7589642
33.0463601
32.2855417
31.4447236
30.480203
29.335018
27.9411012
26.2259441
24.1582721
55.2337394
52.4312949
49.7328897
47.8247832
46.2373941
44.8452076
43.6817396
42.693978
41.8064685
40.9781394
40.1916904
39.437709
38.7104587
38.0068963
37.325328
36.6642764
36.0217585
35.3946058
34.7775215
34.1616584
33.5324595
32.8664526
32.1267493
31.2574298
30.1784918
28.7821575
26.9314354
24.5155654
55.2347854
52.4329294
49.7362722
47.8309629
46.247311
44.8599213
43.7024168
42.7218911
41.843079
41.0251758
40.251224
39.5122645
38.803167
38.1216933
37.4672139
36.839654
36.2388627
35.6640249
35.1127754
34.579702
34.0537658
33.5138216
32.9210959
32.2072029
31.2586034
29.8929613
27.879372
24.9650427
55.2371928
52.435824
49.7406171
47.8376296
46.2570911
44.8737183
43.7212355
42.7468442
41.8754656
41.0665562
40.3034994
39.5777965
38.8849443
38.2235605
37.594187
36.9983615
36.4381601
35.9158471
35.4332978
34.9908637
34.5850702
34.2038397
33.8169889
33.3561211
32.6740986
31.447517
29.137831
24.582827
55.240156
52.4391656
49.7450829
47.8438977
46.2657885
44.8855625
43.7370297
42.7674908
41.9020317
41.100339
40.3461013
39.6312377
38.9518248
38.3072878
37.6993059
37.1310361
36.6068909
36.1325492
35.7149488
35.3620593
35.0819887
34.8805372
34.7554107
34.6811135
34.5699465
34.1534471
32.6547099
26.2725798
69.7547528
60.9463174
54.5085491
50.9041602
48.2276332
45.9948539
44.1864921
42.680254
41.3527745
40.1400169
39.0094016
37.9395197
36.9155379
35.9273047
34.9675335
34.0306903
33.1124487
32.2093792
31.3187412
30.4383391
29.5664234
28.7016197
27.842875
26.9894161
26.1407152
25.2964601
24.4565263
23.6209509
61.9985141
58.4938844
54.4729944
51.3488629
48.7541524
46.4910519
44.5913384
42.9941977
41.5962634
40.3309026
39.1617257
38.0638896
37.0191814
36.0149714
35.0424645
34.0952031
33.1682641
32.2578266
31.3608871
30.4750643
29.5984717
28.7296309
27.8674092
27.0109711
26.1597389
25.3133598
24.4716751
23.6346912
58.7559486
57.2608022
54.2636074
51.3260159
48.8377885
46.6607017
44.7706772
43.1480984
41.7248875
40.4397172
39.2546831
38.1443825
37.0899633
36.0779736
35.0990132
34.1462431
33.2144754
32.2996992
31.3987798
30.509248
29.6291576
28.7569911
27.8915919
27.0321129
26.1779751
25.3288324
24.4845392
23.6451197
57.199939
56.1381742
53.6560086
51.0186271
48.7235023
46.6862367
44.8699736
43.273581
41.855919
40.5675919
39.374818
38.2550324
37.1911646
36.1704048
35.1834679
34.2234785
33.285148
32.3643316
31.4577617
30.5628554
29.6775775
28.8003461
27.9299649
27.0655695
26.2065841
25.3526837
24.5037586
23.6598797
56.0971717
55.136943
52.9882262
50.6460531
48.5321661
46.6167124
44.884348
43.3389122
41.9499307
40.6770142
39.4910365
38.3723795
37.306214
36.2811948
35.2889011
34.3229799
33.3784486
32.4513159
31.5383714
30.6370387
29.745268
28.8614605
27.9844114
27.1132647
26.2474729
25.3867602
24.5310852
23.6806029
55.285062
54.3845463
52.4234862
50.2737494
48.294568
46.4795687
44.8276201
43.3412137
41.992609
40.7470528
39.5792288
38.4718072
37.411786
36.3892819
35.3969157
34.4290555
33.4812205
32.5497577
31.6316731
30.7245256
29.8263522
28.9356165
28.0511698
27.1722189
26.2982951
25.429221
24.5650748
23.7061496
54.6711515
53.8038628
51.9447316
49.919056
48.0444901
46.3146858
44.7340559
43.3042567
41.9981802
40.7841592
39.6395608
38.5488021
37.5002667
36.4852428
35.4972455
34.5312909
33.5833724
32.6501817
31.7289702
30.8174698
29.9138444
29.0166599
28.1248638
27.2377664
26.3550208
25.4765962
24.6027434
23.733952
54.1908232
53.3417535
51.543558
49.6017351
47.8068487
46.145952
44.6249667
43.245236
41.979416
40.7971135
39.6772968
38.6056211
37.5714699
36.5669931
35.5863968
34.6252148
33.6798237
32.7471988
31.8247977
30.9105019
30.0025906
29.099729
28.2009655
27.305728
26.4138146
25.5253749
24.640878
23.7610665
53.8070212
52.9695324
51.2107476
49.3263641
47.5905558
45.9841159
44.5123536
43.1758631
41.9465973
40.7944599
39.6992457
38.6474061
37.6290052
36.636795
35.6654844
34.7109945
33.7699877
32.8396457
31.9175713
31.001748
30.0905318
29.1826585
28.2772585
27.3738699
26.4724426
25.5733285
24.6772535
23.785268
53.4962218
52.6665972
50.9344493
49.0903093
47.3985476
45.8351564
44.40392
43.1043351
41.9075201
40.7832255
39.7115631
38.6794139
37.677257
36.6982285
35.7373702
34.7908633
33.8555574
32.9287593
32.0081481
31.0917496
30.1779448
29.2654959
28.3535814
27.4418283
26.530334
25.6196691
24.7108542
23.8053075
53.2423176
52.4182328
50.7048737
48.8898481
47.231428
45.7021699
44.3042416
43.0359771
41.8676595
40.7686773
39.7191419
38.7060925
37.7202102
36.7548369
35.8051971
34.8676115
33.9390176
33.0167618
32.0985228
31.1822984
30.2664287
29.3496436
28.4311213
27.5105439
26.5881419
25.6647157
24.7416224
23.8207214
53.0339001
52.21387
50.5142871
48.7209661
47.0882215
45.5862394
44.2158036
42.9741685
41.8308298
40.7547317
39.725811
38.7310848
37.7612795
36.8098028
35.8719368
34.9440321
34.0230175
33.1061897
32.1911417
31.2757586
30.3582584
29.4372603
28.511873
27.5817799
26.6473163
25.7095184
24.7701289
23.8315411
52.8626041
52.0456424
50.3564993
48.5798199
46.9672504
45.4873566
44.1398292
42.9209906
41.7996312
40.7442426
39.7345052
38.7573064
37.8033094
36.8658832
35.9402682
35.0227502
34.1101581
33.1996481
32.2886335
31.374787
30.4561015
29.5309838
28.5983747
27.6578775
26.7098818
25.7556538
24.7973724
23.8380815
52.722093
51.9075236
50.2265333
48.4629678
46.8666059
45.4048999
44.0767114
42.8775959
41.775739
40.7392103
39.7474076
38.7870317
37.8486151
36.9254159
36.0125569
35.106181
34.2029346
33.2997421
32.3937335
31.4822572
30.5629535
29.6338786
28.69367
27.7417292
26.7784111
25.8051822
24.8247093
23.8408358
52.6074226
51.7947726
50.1203314
48.3673774
46.7843375
45.3378928
44.0262901
42.8444747
41.7601307
40.7409552
39.7660711
38.8219729
37.899027
36.9903357
36.0908519
35.1965144
34.3037133
33.4090528
32.5092733
31.6012652
30.6821596
29.7494843
28.8013824
27.8368717
26.8561267
25.8607411
24.8539106
23.8404632
52.5146259
51.7035586
50.0345201
48.2903751
46.7185411
45.2851618
43.9880372
42.8216387
41.7532467
40.7502457
39.791512
38.8633401
37.9559212
37.062182
36.1768756
35.2956921
34.4147071
33.5301223
32.6381752
31.7351481
30.8174717
29.8819145
28.9258631
27.9476799
26.9471201
25.9257547
24.8873155
23.8378405
52.4404342
51.6307062
49.9662369
48.2295836
46.6673896
45.2454241
43.9611703
42.8087406
41.7551021
40.7673903
39.824277
38.9118825
38.0202364
37.1420937
36.2719982
35.4053736
34.5379369
33.6654153
32.7834304
31.8874933
30.9731072
30.0359839
29.072392
28.0796383
27.0566722
26.0047557
24.9280829
23.8341615
52.3820854
51.5735182
49.9130012
48.1828617
46.6291351
45.2173326
43.9447221
42.8051535
41.7653623
40.7923005
39.8644876
38.9679113
38.0924733
37.2307838
36.3771986
35.5268767
34.6751579
33.8172443
32.9480425
32.0621219
31.1537945
30.2173411
29.2474216
28.2397015
27.1917068
26.1038661
24.9805903
23.8311167
52.3371921
51.529652
49.8726205
48.1482537
46.6021002
45.1994989
43.937583
42.8100219
41.7833938
40.8245328
39.9118667
39.0313053
38.172679
37.3285045
36.4929954
35.6610801
34.8277438
33.98765
33.1349187
32.263016
31.3647746
30.4325894
29.4588603
28.4367635
27.3614226
26.2314944
25.0510087
23.8311162
52.3036496
51.4970334
49.8431233
48.1239501
46.5846669
45.1905051
43.9385289
42.822297
41.8082982
40.8633157
39.9657497
39.1015086
38.26042
37.4349821
36.6193445
35.8082918
34.9965262
34.1782152
33.3466758
32.4941528
31.6117169
30.6893564
29.7163762
28.6822654
27.578213
26.3994386
25.1482331
23.8375052
52.2795732
51.4737976
49.8227121
48.1082592
46.5752679
45.1889119
43.9462403
42.8407618
41.8389375
40.9075663
40.0251001
39.1775191
38.354735
37.5493324
36.7555227
35.9680817
35.1815691
34.3897852
33.5853266
32.7591939
31.9004798
30.9962297
30.031643
28.9908949
27.8589283
26.6247067
25.2859474
23.8560504
52.2632573
51.4582508
49.8097336
48.0995906
46.5723835
45.1932675
43.959321
42.8640531
41.8739601
40.9559219
40.0885133
39.2578663
38.4540877
37.6699842
36.8999911
36.1390722
35.3818746
34.6220812
33.8518053
33.0609606
32.2366189
31.3624427
30.4184068
29.3812249
28.2261233
26.9311429
25.484221
23.896436
52.2531506
51.448847
49.8026618
48.096447
46.5745447
45.2021203
43.9763169
42.8906962
41.9118373
41.0067582
40.1542213
39.3406092
38.5563424
37.7946029
37.050252
36.3187039
35.5950266
34.8731913
34.1452885
33.4006001
32.6244909
31.7971494
30.8923626
29.876795
28.7106876
27.3524757
25.7685092
23.9610254
52.2478443
51.4441784
49.8000926
48.0974264
46.580342
45.2140385
43.9957544
42.9191404
41.9508928
41.0582166
40.2201336
39.4233636
38.6587591
37.9200419
37.2027295
36.5030064
35.816799
35.1389519
34.4622805
33.7763251
33.0656678
32.3077069
31.4699284
30.5069726
29.3583149
27.949931
26.1993012
24.0701729
52.2460684
51.4429773
49.8007462
48.1012303
46.5884471
45.2276428
44.0161723
42.9477926
41.9893492
41.1082743
40.2839009
39.5033581
38.7580356
38.0423519
37.3527144
36.6864267
36.0407911
35.41228
34.7955035
34.1817065
33.5564831
32.896322
32.1636767
31.3003731
30.2211778
28.8093651
26.9092046
24.3982478
52.2466977
51.4441116
49.8034746
48.1066818
46.5976359
45.2416346
44.0361558
42.9750757
42.0254059
41.1548266
40.3430102
39.5775412
38.8504205
38.1568836
37.4944257
36.8617945
36.2581973
35.6825887
35.1327308
34.6036653
34.0850509
33.5564245
32.9789242
32.2810365
31.340525
29.9557378
27.8660413
24.8110031
52.2487621
51.4465954
49.8072777
48.1127452
46.6068122
45.2548302
44.0543936
42.9994986
42.057323
41.1957927
40.3949189
39.642748
38.931913
38.2585178
37.6212549
37.0205323
36.4578763
35.9354957
35.455726
35.0199946
34.6266739
34.2664105
33.9118894
33.4946714
32.8580968
31.6283915
29.1666406
24.0478442
52.2514581
51.4496153
49.8113228
48.1185478
46.6150417
45.2662058
44.0697339
43.019729
42.0835178
41.2292448
40.4372247
39.6959227
38.998556
38.3420475
37.7262507
37.1532413
36.6269786
36.1532837
35.7399596
35.3968853
35.1358076
34.9689308
34.9044565
34.9328298
34.9859004
34.7743335
33.3739924
25.908289
68.5286885
60.1347585
54.1043094
50.7087827
48.1559853
45.9971277
44.2190199
42.7177356
41.383981
40.1605625
39.0185734
37.9385318
36.9063347
35.9119232
34.9478149
34.0081663
33.0883253
32.1845708
31.2939223
30.4139974
29.542905
28.6791652
27.8216467
26.9695175
26.122205
25.2793616
24.4408343
23.606636
60.8225239
57.7251089
54.1406272
51.232656
48.7578175
46.5677662
44.6913744
43.0878328
41.673736
40.3902693
39.2039152
38.0914577
37.0351852
36.0222083
35.0432501
34.0913779
33.1612493
32.2486961
31.3504433
30.4639045
29.5870404
28.7182586
27.8563408
27.0003868
26.1497689
25.3040945
24.4631723
23.6269814
57.6028319
56.5289102
54.0082998
51.3084354
48.9427995
46.8370791
44.958969
43.3113766
41.8548584
40.5387932
39.3271786
38.1953686
37.1244884
36.1002474
35.1122625
34.152904
33.2163789
32.298211
31.3949184
30.5037781
29.6226594
28.7499079
27.8842648
27.0248052
26.1708891
25.3221216
24.4783168
23.6394645
56.0740287
55.4434222
53.4496191
51.0593666
48.8921811
46.9292948
45.12202
43.4917534
42.0306598
40.7027346
39.4762191
38.3291446
37.2443982
36.2081176
35.2097037
34.2412232
33.2966084
32.371135
31.4611135
30.5636621
29.676534
28.7979942
27.9267324
27.061798
26.2025476
25.3486014
24.4998036
23.6561856
54.9875864
54.461416
52.8056299
50.7176005
48.7360196
46.8959606
45.1709323
43.5874281
42.1498601
40.8328199
39.6095601
38.4608989
37.3718395
36.3298419
35.3249853
34.3497048
33.3981444
32.4656789
31.5486448
30.6441525
29.7499367
28.8642466
27.9857674
27.1135607
26.2470152
25.3858033
24.5298399
23.6792419
54.1820075
53.717256
52.2521757
50.3610579
48.5163777
46.7764836
45.1306935
43.604203
42.2043678
40.9122698
39.7054114
38.5668299
37.4832043
36.4433398
35.4382381
34.4609463
33.5060354
32.5691741
31.6468921
30.7364253
29.8355954
28.94272
28.0565492
27.1762171
26.3012009
25.4312807
24.5664996
23.7071198
53.5696306
53.1394045
51.7774888
50.0124183
48.2736431
46.6190275
45.0441978
43.5735675
42.2150571
40.9532554
39.7687084
38.6462312
37.5738069
36.5413495
35.540695
34.5654727
33.6106719
32.672268
31.7470106
30.8322931
29.926057
29.026721
28.1331338
27.2445387
26.3605415
25.4810771
24.6063694
23.736886
53.0883924
52.6771145
51.3764341
49.6961294
48.0379723
46.4525581
44.9373387
43.5165789
42.1978909
40.9672825
39.8071132
38.7034925
37.6453674
36.6234819
35.6303392
34.6600581
33.7079829
32.77035
31.8440978
30.9267563
30.0163721
29.1114571
28.2109576
27.3142338
26.4210382
25.531489
24.6460333
23.7653975
52.7026806
52.3033967
51.0420893
49.4195813
47.8210449
46.290348
44.8244732
43.4470543
42.1649138
40.9643687
39.8287134
38.7449045
37.7025587
36.6930075
35.7092514
34.7457896
33.7982434
32.8630466
31.9372752
31.0185536
30.1049981
29.1951848
28.2881375
27.3833226
26.4806423
25.5804167
24.6833507
23.7904811
52.3897385
51.998561
50.7637071
49.1814785
47.6272443
46.1398091
44.7146711
43.3743992
42.124898
40.9523065
39.8402856
38.7762554
37.7502463
36.7539687
35.7807579
34.8253763
33.8836322
32.952084
32.0278825
31.1086919
30.1926495
29.2783541
28.3648733
27.4517589
26.5390568
25.6273032
24.7174968
23.8110431
52.1338044
51.748309
50.5320126
48.978788
47.4579855
46.0048369
44.6132269
43.3045478
42.0837966
40.9367174
39.846988
38.8022024
37.7925936
36.8100774
35.8481764
34.9017984
33.9668442
33.0399144
32.1181612
31.1992204
30.2811879
29.3626279
28.4426045
27.5207204
26.5971518
25.6726622
24.7485854
23.8267675
51.9235992
51.5422451
50.339495
48.807808
47.3126725
45.8868905
44.5229642
43.2411725
42.0456584
40.9216887
39.8527671
38.8264705
37.8330765
36.8645679
35.9145305
34.9779088
34.0506004