/*--------------------------------*- C++ -*----------------------------------*\
| =========                 |                                                 |
| \\      /  F ield         | foam-extend: Open Source CFD                    |
|  \\    /   O peration     | Version:     4.1                                |
|   \\  /    A nd           | Web:         http://www.foam-extend.org         |
|    \\/     M anipulation  |                                                 |
\*---------------------------------------------------------------------------*/
FoamFile
{
    version     2.0;
    format      ascii;
    class       surfaceScalarField;
    location    "0.25";
    object      phi;
}
// * * * * * * * * * * * * * * * * * * * * * * * * * * * * * * * * * * * * * //

dimensions      [0 3 -1 0 0 0 0];

internalField   nonuniform List<scalar> 
102656
(
0.000395260992
5.3026706e-05
5.17123024e-05
0.00028160956
5.82612845e-05
5.53901461e-05
0.000200388207
4.23599368e-05
3.88614164e-05
0.00014889006
2.74477992e-05
2.40503472e-05
0.000117043047
1.7373792e-05
1.44732197e-05
9.68261774e-05
1.12255439e-05
8.99132569e-06
8.3561745e-05
7.39722402e-06
5.86720844e-06
7.46512744e-05
4.89410245e-06
4.01636843e-06
6.84832946e-05
3.24796421e-06
2.92001616e-06
6.40422774e-05
2.1686427e-06
2.27237534e-06
6.07178732e-05
1.45059357e-06
1.87381178e-06
5.81456062e-05
9.6286628e-07
1.6094021e-06
5.6101473e-05
6.25645935e-07
1.41848886e-06
5.44435892e-05
3.88733082e-07
1.26915236e-06
5.30790931e-05
2.19898503e-07
1.14459938e-06
5.19444512e-05
9.84576137e-08
1.03618609e-06
5.09939071e-05
1.10779512e-08
9.39467851e-07
5.01930583e-05
-5.11172669e-08
8.51967605e-07
4.95149936e-05
-9.41165816e-08
7.72182755e-07
4.89377354e-05
-1.21870562e-07
6.99130156e-07
4.84428047e-05
-1.3713449e-07
6.32066301e-07
4.80143543e-05
-1.41957709e-07
5.70409096e-07
4.76385886e-05
-1.37942042e-07
5.13708567e-07
4.73033746e-05
-1.26405333e-07
4.61619901e-07
4.69980001e-05
-1.08512369e-07
4.13887398e-07
4.67130313e-05
-8.5361718e-08
3.70330963e-07
4.64402353e-05
-5.80353123e-08
3.30831622e-07
-2.76184323e-08
2.95316768e-07
4.61725372e-05
0.000461998914
2.77116341e-05
6.33161575e-05
0.000392853511
5.22457363e-05
7.51609501e-05
0.000323886768
5.01978221e-05
6.11288568e-05
0.000266759483
4.04818008e-05
4.40932826e-05
0.000223840052
3.04891178e-05
2.98041047e-05
0.000193125757
2.23535711e-05
1.95862676e-05
0.000171289119
1.62937131e-05
1.29401496e-05
0.000155547009
1.18549845e-05
8.7812291e-06
0.000143962501
8.61137253e-06
6.22110075e-06
0.000135224052
6.2550789e-06
4.65201513e-06
0.000128460702
4.54400265e-06
3.66994337e-06
0.000123103185
3.29339219e-06
3.02699342e-06
0.000118776128
2.37041802e-06
2.5822879e-06
0.000115226524
1.6814827e-06
2.25685773e-06
0.00011227954
1.16129995e-06
2.00558517e-06
0.00010981074
7.64937344e-07
1.80232372e-06
0.000107728524
4.61661356e-07
1.63163578e-06
0.000105962867
2.30411461e-07
1.48413017e-06
0.000104458327
5.6596575e-08
1.35382956e-06
0.000103169938
-7.01671899e-08
1.23668785e-06
0.000102060346
-1.57408509e-07
1.12986761e-06
0.000101097722
-2.10702684e-07
1.03137e-06
0.000100254437
-2.34442274e-07
9.39786693e-07
9.95062234e-05
-2.32311231e-07
8.54120757e-07
9.88316309e-05
-2.07605597e-07
7.73686448e-07
9.82116809e-05
-1.63456089e-07
6.98045032e-07
9.76296587e-05
-1.02969139e-07
6.26956475e-07
-2.93000091e-08
5.60337692e-07
9.7071003e-05
0.000447769626
1.52548525e-05
6.46871551e-05
0.000388238182
3.58422488e-05
7.59349302e-05
0.000335580919
4.06673995e-05
6.21876856e-05
0.000291761121
3.76323849e-05
4.66692134e-05
0.000257078344
3.18664061e-05
3.33054879e-05
0.000230708366
2.5676512e-05
2.30470377e-05
0.000210913643
2.01514213e-05
1.59370145e-05
0.000195903255
1.55985797e-05
1.12667936e-05
0.000184290762
1.19696372e-05
8.25422995e-06
0.00017510594
9.12849217e-06
6.31140997e-06
0.000167691988
6.9263734e-06
5.03158348e-06
0.000161607486
5.22491908e-06
4.15297778e-06
0.000156550002
3.90781393e-06
3.52009012e-06
0.000152305328
2.88294578e-06
3.04321299e-06
0.000148716733
2.08017189e-06
2.66972555e-06
0.000145666048
1.44776027e-06
2.36786443e-06
0.000143061571
9.48413886e-07
2.11772656e-06
0.000140830227
5.55564076e-07
1.90619314e-06
0.000138912383
2.50310719e-07
1.7241319e-06
0.000137258187
1.91124541e-08
1.56491734e-06
0.000135825153
-1.47961536e-07
1.42358898e-06
0.000134576543
-2.58453357e-07
1.29636101e-06
0.000133480097
-3.18371168e-07
1.18037637e-06
0.000132507148
-3.32850787e-07
1.07348922e-06
0.000131632071
-3.0664206e-07
9.74114052e-07
0.000130831933
-2.44435495e-07
8.81117792e-07
0.000130086301
-1.51071289e-07
7.93735146e-07
-3.16508785e-08
7.11496029e-07
0.000129377156
0.000440472431
9.95939275e-06
6.48230284e-05
0.000375873664
2.4643687e-05
7.57973282e-05
0.000324700356
3.07169614e-05
6.11237455e-05
0.000286196847
3.0857043e-05
4.52788501e-05
0.000257839159
2.8109413e-05
3.21146812e-05
0.000237173763
2.41814961e-05
2.21604125e-05
0.000221931285
2.00717571e-05
1.53221422e-05
0.000210342833
1.63042693e-05
1.08827634e-05
0.000201203043
1.3057339e-05
8.05208957e-06
0.000193746071
1.03430078e-05
6.24245755e-06
0.000187502824
8.11242583e-06
5.05719675e-06
0.000182187803
6.29686694e-06
4.24307482e-06
0.000177620009
4.82551638e-06
3.65009257e-06
0.000173675241
3.63409361e-06
3.19362168e-06
0.000170260733
2.66841621e-06
2.82626558e-06
0.000167302329
1.88513126e-06
2.52103452e-06
0.000164737963
1.25085122e-06
2.26192969e-06
0.000162514238
7.40543788e-07
2.0387474e-06
0.000160584446
3.35746581e-07
1.84435648e-06
0.000158907267
2.29279221e-08
1.67336453e-06
0.000157445771
-2.07948792e-07
1.52148467e-06
0.000156166693
-3.64590608e-07
1.38521639e-06
0.000155039836
-4.53223767e-07
1.26171003e-06
0.000154037649
-4.79320143e-07
1.14865709e-06
0.000153134943
-4.48160938e-07
1.04422487e-06
0.000152308745
-3.65237046e-07
9.47000252e-07
0.00015153825
-2.36512748e-07
8.55937671e-07
-6.85643933e-08
7.70307536e-07
0.000150804856
0.000437877922
7.06318676e-06
6.50182833e-05
0.000368456422
1.78001813e-05
7.62650054e-05
0.000314729111
2.34042916e-05
6.10399806e-05
0.000276412528
2.47883901e-05
4.43852359e-05
0.000250111281
2.36930221e-05
3.07176383e-05
0.000232366629
2.13256143e-05
2.06005342e-05
0.000220181644
1.84513747e-05
1.38053677e-05
0.000211415096
1.55548765e-05
9.51594165e-06
0.000204717323
1.28783688e-05
6.87674485e-06
0.000199292426
1.05087341e-05
5.25917188e-06
0.000194697256
8.45943488e-06
4.24816187e-06
0.000190697322
6.71212067e-06
3.58468087e-06
0.000187169989
5.23518487e-06
3.11766628e-06
0.000184046979
3.99342037e-06
2.76368359e-06
0.000181284168
2.95326769e-06
2.47796091e-06
0.000178847145
2.08536868e-06
2.23678652e-06
0.00017670502
1.36546867e-06
2.02750741e-06
0.000174828203
7.74350908e-07
1.84301068e-06
0.000173187855
2.97251257e-07
1.67884424e-06
0.00017175594
-7.69609324e-08
1.53180442e-06
0.000170505364
-3.56704016e-07
1.39933219e-06
0.000169410063
-5.48533402e-07
1.27924457e-06
0.000168445059
-6.57868565e-07
1.16964913e-06
0.000167586551
-6.89710195e-07
1.06889885e-06
0.000166812005
-6.49210308e-07
9.75595769e-07
0.000166100293
-5.42114297e-07
8.88590073e-07
0.000165431876
-3.75068916e-07
8.06973877e-07
-1.5578501e-07
7.3006779e-07
0.00016478903
0.00043660593
5.27639772e-06
6.51808592e-05
0.000364323204
1.34344939e-05
7.66484132e-05
0.00030825327
1.82415843e-05
6.12326416e-05
0.000268852107
2.00670771e-05
4.41224756e-05
0.000242608418
1.98814199e-05
3.0055292e-05
0.000225726211
1.85093883e-05
1.96984335e-05
0.000214856576
1.65295039e-05
1.27915069e-05
0.000207589078
1.43418447e-05
8.48053035e-06
0.000202403705
1.2183934e-05
5.8798091e-06
0.00019840823
1.01716148e-05
4.33259514e-06
0.000195111509
8.35181131e-06
3.40434491e-06
0.000192261308
6.73648039e-06
2.82584221e-06
0.000189735701
5.32000193e-06
2.44079e-06
0.000187477715
4.08859924e-06
2.16280719e-06
0.000185459592
3.02573219e-06
1.9456592e-06
0.000183664641
2.11509479e-06
1.76522501e-06
0.000182078848
1.34215675e-06
1.60910444e-06
0.000180687562
6.94815577e-07
1.47082207e-06
0.000179474552
1.63497603e-07
1.34676408e-06
0.000178422089
-2.59134527e-07
1.23463651e-06
0.000177511285
-5.78664375e-07
1.13276463e-06
0.000176722412
-7.9943957e-07
1.03978023e-06
0.000176035303
-9.25237972e-07
9.54479122e-07
0.000175429711
-9.59896773e-07
8.75779161e-07
0.000174885652
-9.0787492e-07
8.02723982e-07
0.000174383779
-7.74729444e-07
7.34489511e-07
0.000173905786
-5.67465588e-07
6.70390851e-07
-2.94724377e-07
6.09884863e-07
0.000173434841
0.000435884033
4.09313564e-06
6.52992293e-05
0.000361910397
1.04692936e-05
7.69388364e-05
0.000304146128
1.45084272e-05
6.14974268e-05
0.000263616716
1.64113028e-05
4.41851864e-05
0.00023688185
1.67264474e-05
2.98898392e-05
0.000220030092
1.59985535e-05
1.93625939e-05
0.000209558144
1.46563487e-05
1.23451037e-05
0.000202913546
1.30170057e-05
7.96943714e-06
0.000198468673
1.128963e-05
5.33917776e-06
0.000195259027
9.59521089e-06
3.78605054e-06
0.000192747559
7.99737286e-06
2.86590637e-06
0.000190653682
6.5262962e-06
2.30406193e-06
0.000188839121
5.19332421e-06
1.94123843e-06
0.000187239171
3.99961671e-06
1.68893244e-06
0.000185824354
2.94130105e-06
1.49924772e-06
0.000184580093
2.01251773e-06
1.34683787e-06
0.000183496616
1.20718787e-06
1.21844582e-06
0.000182564424
5.19975894e-07
1.10703128e-06
0.000181772549
-5.32752882e-08
1.00864787e-06
0.000181108108
-5.15578378e-07
9.20885947e-07
0.000180556333
-8.68952691e-07
8.4206325e-07
0.000180100815
-1.11482576e-06
7.70904538e-07
0.000179723876
-1.25463109e-06
7.06333483e-07
0.000179406962
-1.29039565e-06
6.47413056e-07
0.000179131096
-1.22532935e-06
5.93321453e-07
0.000178877388
-1.06436172e-06
5.43341994e-07
0.00017862762
-8.14556586e-07
4.96860057e-07
-4.85339984e-07
4.53362004e-07
0.000178364874
0.000435447615
3.25467451e-06
6.53908463e-05
0.000360403406
8.34389187e-06
7.71696118e-05
0.000301439199
1.17196447e-05
6.175299e-05
0.000259974773
1.35277514e-05
4.43479783e-05
0.000232680472
1.40959984e-05
2.99247511e-05
0.000215603642
1.37796273e-05
1.9295757e-05
0.000205161429
1.28882339e-05
1.22103285e-05
0.000198722446
1.1666115e-05
7.78987403e-06
0.000194594617
1.02872847e-05
5.13017417e-06
0.000191767607
8.8649139e-06
3.55730715e-06
0.000189673877
7.46809389e-06
2.62300915e-06
0.000188012428
6.13694324e-06
2.05080121e-06
0.000186631105
4.89360994e-06
1.68103705e-06
0.000185456046
3.74958103e-06
1.42509413e-06
0.000184452248
2.71028858e-06
1.23480984e-06
0.000183602317
1.77799398e-06
1.0844546e-06
0.000182895561
9.53603283e-07
9.60340443e-07
0.000182322767
2.37775858e-07
8.54994349e-07
0.000181873935
-3.68530635e-07
7.64086629e-07
0.00018153733
-8.63855817e-07
6.84882968e-07
0.000181299172
-1.24626437e-06
6.15469952e-07
0.000181143738
-1.51378104e-06
5.54389951e-07
0.000181053567
-1.66490223e-06
5.00443316e-07
0.000181009794
-1.69923348e-06
4.52611368e-07
0.00018099263
-1.6181769e-06
4.10013055e-07
0.000180981974
-1.42558542e-06
3.7188018e-07
0.000180958172
-1.12829114e-06
3.37538384e-07
-7.36411236e-07
3.06397141e-07
0.000180902847
0.000435162548
2.63010538e-06
6.54620215e-05
0.000359405141
6.75294888e-06
7.73483511e-05
0.000299587679
9.57172066e-06
6.19653872e-05
0.0002573887
1.12100908e-05
4.45166406e-05
0.000229584146
1.18791665e-05
3.00213865e-05
0.000212217985
1.18125444e-05
1.93332453e-05
0.000201666288
1.12302601e-05
1.22096711e-05
0.000195250678
1.03167532e-05
7.76497232e-06
0.000191237418
9.21194344e-06
5.08860085e-06
0.000188584762
8.01501824e-06
3.50255232e-06
0.000186703799
6.79308981e-06
2.55596599e-06
0.00018527928
5.58998405e-06
1.97147749e-06
0.000184149309
4.43384459e-06
1.58973599e-06
0.000183233332
3.34284051e-06
1.32271652e-06
0.000182491898
2.329011e-06
1.12271197e-06
0.000181904835
1.40081582e-06
9.64240192e-07
0.000181459887
5.64855722e-07
8.3369509e-07
0.000181147091
-1.7299907e-07
7.23571683e-07
0.00018095612
-8.07018486e-07
6.29459082e-07
0.000180875021
-1.33123426e-06
5.48477248e-07
0.000180889709
-1.73955471e-06
4.78603173e-07
0.0001809838
-2.0261367e-06
4.182653e-07
0.000181138679
-2.18595516e-06
3.66174837e-07
0.000181333767
-2.21555931e-06
3.21238345e-07
0.00018154702
-2.11394096e-06
2.82511884e-07
0.000181755659
-1.88339178e-06
2.49169088e-07
0.000181937118
-1.53021466e-06
2.20465512e-07
-1.06517086e-06
1.95719309e-07
0.000182070159
0.000434965977
2.14713502e-06
6.55169942e-05
0.000358714136
5.51873264e-06
7.74860584e-05
0.000298279513
7.87116036e-06
6.21351851e-05
0.000255509739
9.31387905e-06
4.4665987e-05
0.000227267527
9.99282044e-06
3.01285588e-05
0.000209611268
1.00648405e-05
1.94039629e-05
0.000198898832
9.68554835e-06
1.22571481e-05
0.000192424377
8.99244398e-06
7.79876443e-06
0.00018842695
8.09559425e-06
5.11377625e-06
0.000185842529
7.07846063e-06
3.52097759e-06
0.000184066133
6.00204232e-06
2.56744324e-06
0.000182771496
4.90961716e-06
1.97500296e-06
0.000181789219
3.83168148e-06
1.58443992e-06
0.000181033684
2.79016025e-06
1.30821514e-06
0.000180462152
1.80145186e-06
1.0990906e-06
0.00018005247
8.78567229e-07
9.31929937e-07
0.0001797913
3.26744496e-08
7.9335096e-07
0.00017966817
-7.25881974e-07
6.76013652e-07
0.000179672468
-1.38685141e-06
5.75534708e-07
0.000179791945
-1.93979336e-06
4.89082383e-07
0.000180011929
-2.37417993e-06
4.1464206e-07
0.000180314931
-2.67978179e-06
3.50644211e-07
0.000180680539
-2.84737669e-06
2.95814451e-07
0.000181085607
-2.8697019e-06
2.4907475e-07
0.000181504765
-2.74257508e-06
2.09477067e-07
0.000181911274
-2.46607359e-06
1.76173913e-07
0.00018227824
-2.04558809e-06
1.48408165e-07
-1.49253495e-06
1.25489309e-07
0.000182580116
0.000434825185
1.76236407e-06
6.55595872e-05
0.000358217993
4.53316497e-06
7.75927614e-05
0.000297326825
6.49287083e-06
6.22694587e-05
0.000254112258
7.73786829e-06
4.47905789e-05
0.00022550355
8.37452531e-06
3.02270046e-05
0.000207578977
8.51083369e-06
1.94785798e-05
0.000196691076
8.25708748e-06
1.23163621e-05
0.000190119165
7.715045e-06
7.84931023e-06
0.000186085315
6.97002838e-06
5.1594147e-06
0.000183510277
6.09040399e-06
3.56309433e-06
0.000181777193
5.12927947e-06
2.60584601e-06
0.000180551169
4.12682732e-06
2.00881329e-06
0.000179656727
3.11335948e-06
1.61276341e-06
0.000179004128
2.11232926e-06
1.33043005e-06
0.000178548031
1.14267006e-06
1.11487824e-06
0.000178264844
2.20544286e-07
9.41210727e-07
0.00017814062
-6.39349843e-07
7.96247444e-07
0.000178164762
-1.42275891e-06
6.7273519e-07
0.000178326746
-2.11520347e-06
5.66368275e-07
0.000178614293
-2.70173227e-06
4.74392766e-07
0.000179012265
-3.16700079e-06
3.94849333e-07
0.000179501996
-3.49574355e-06
3.26231254e-07
0.000180060959
-3.67364237e-06
2.67303194e-07
0.000180662795
-3.68856811e-06
2.17031529e-07
0.000181277796
-3.53211158e-06
1.74535466e-07
0.00018187393
-3.20124658e-06
1.39040206e-07
0.000182418393
-2.69989233e-06
1.09841893e-07
-2.04006333e-06
8.6272967e-08
0.000182879649
0.000434720969
1.4485661e-06
6.559283e-05
0.00035785
3.72803161e-06
7.76761041e-05
0.000296613069
5.35431183e-06
6.23754921e-05
0.000253048427
6.41053406e-06
4.48919769e-05
0.000224134918
6.97668574e-06
3.03113499e-05
0.00020597032
7.12874377e-06
1.95466877e-05
0.000194908428
6.94530102e-06
1.23736791e-05
0.000188221585
6.50135174e-06
7.90053531e-06
0.000184121975
5.86230816e-06
5.20733022e-06
0.000181520523
5.08306505e-06
3.60879041e-06
0.000179792104
4.20844585e-06
2.64925224e-06
0.000178595427
3.27416897e-06
2.04933447e-06
0.000177750322
2.30871562e-06
1.64974837e-06
0.000177163824
1.33544984e-06
1.36337731e-06
0.000176788626
3.74405469e-07
1.14346317e-06
0.000176600197
-5.56307006e-07
9.65279794e-07
0.000176584433
-1.43930821e-06
8.15722945e-07
0.000176731105
-2.2569957e-06
6.87564694e-07
0.000177030243
-2.99092762e-06
5.76586473e-07
0.000177469946
-3.62150649e-06
4.80071749e-07
0.000178034921
-4.12806835e-06
3.96092607e-07
0.000178705432
-4.4894424e-06
3.23188289e-07
0.000179456624
-4.68502816e-06
2.60194704e-07
0.000180258299
-4.69640686e-06
2.06164385e-07
0.000181075308
-4.50942775e-06
1.60307973e-07
0.000181868705
-4.11658993e-06
1.21946109e-07
0.000182597752
-3.51940273e-06
9.04641146e-08
-2.7302661e-06
6.52639263e-08
0.000183222692
0.000434641495
1.18802438e-06
6.5619048e-05
0.00035756889
3.05870509e-06
7.77419331e-05
0.000296063725
4.3997043e-06
6.24597743e-05
0.000252219387
5.28080932e-06
4.49740641e-05
0.000223051497
5.76280814e-06
3.03817688e-05
0.00020467481
5.89982866e-06
1.9605602e-05
0.00019344729
5.74811303e-06
1.24247081e-05
0.000186638922
5.36273311e-06
7.94698554e-06
0.000182456653
4.79331117e-06
5.25126539e-06
0.000179805513
4.08313843e-06
3.65106643e-06
0.000178055031
3.26906578e-06
2.68986181e-06
0.000176859561
2.38176382e-06
2.08787453e-06
0.000176035654
1.4468606e-06
1.68576199e-06
0.000175488136
4.86470619e-07
1.39649705e-06
0.000175168503
-4.79426254e-07
1.17346473e-06
0.000175051947
-1.43175882e-06
9.9200863e-07
0.000175124878
-2.3512565e-06
8.3901734e-07
0.000175378097
-3.21754482e-06
7.07330228e-07
0.000175802861
-4.0084261e-06
5.92734926e-07
0.000176388322
-4.69948641e-06
4.92518725e-07
0.000177119609
-5.26413244e-06
4.04777692e-07
0.000177976265
-5.67419022e-06
3.28092213e-07
0.00017893107
-5.90119232e-06
2.61359766e-07
0.000179949385
-5.91844232e-06
2.0372055e-07
0.000180989306
-5.7038428e-06
1.54494736e-07
0.0001820029
-5.24331204e-06
1.13129079e-07
0.000182938735
-4.53437822e-06
7.91402613e-08
-3.58927506e-06
5.20470964e-08
0.000183745698
0.000434579182
9.68832751e-07
6.56400103e-05
0.000357348127
2.49509092e-06
7.7794672e-05
0.000295629735
3.59054063e-06
6.25275575e-05
0.000251557799
4.31189961e-06
4.50408464e-05
0.000222175451
4.70497448e-06
3.04401825e-05
0.000203611451
4.80827688e-06
1.96555522e-05
0.000192228841
4.6620136e-06
1.24687087e-05
0.000185297772
4.30637484e-06
7.98742675e-06
0.000181022883
3.77849651e-06
5.28970399e-06
0.000178306014
3.11182976e-06
3.68817673e-06
0.000176513567
2.33585645e-06
2.7256566e-06
0.000175297257
1.47601547e-06
2.12205806e-06
0.000174471683
5.54445638e-07
1.71798874e-06
0.000173940507
-4.08869368e-07
1.42651613e-06
0.000173654925
-1.39494013e-06
1.20109506e-06
0.00017359075
-2.38463107e-06
1.01704799e-06
0.000173735775
-3.35760738e-06
8.61325879e-07
0.000174082769
-4.29130285e-06
7.26764775e-07
0.000174625254
-5.16004315e-06
6.09132278e-07
0.000175354515
-5.93445228e-06
5.05704915e-07
0.000176257111
-6.58131343e-06
4.14584965e-07
0.000177312641
-7.06410003e-06
3.34380643e-07
0.000178491813
-7.34441306e-06
2.64049338e-07
0.000179755085
-7.38453939e-06
2.02825228e-07
0.000181052309
-7.15123083e-06
1.50164302e-07
0.000182323894
-6.62058089e-06
1.05684535e-07
0.000183503931
-5.78350657e-06
6.90919451e-08
-4.65086183e-06
4.00825175e-08
0.000184525435
0.000434529011
7.82775712e-07
6.5657047e-05
0.000357170096
2.01638117e-06
7.78376266e-05
0.000295278004
2.89972906e-06
6.25829059e-05
0.000251017064
3.47705286e-06
4.50957879e-05
0.000221451285
3.78189654e-06
3.04888567e-05
0.00020272069
3.8410945e-06
1.96977777e-05
0.000191193317
3.68306658e-06
1.250632e-05
0.000184140722
3.33675399e-06
8.02221534e-06
0.000179766975
2.82936624e-06
5.32287718e-06
0.0001769725
2.18602732e-06
3.72027725e-06
0.00017512216
1.42949289e-06
2.75670337e-06
0.000173866379
5.79981017e-07
2.15181508e-06
0.000173018912
-3.44300023e-07
1.74621261e-06
0.000172483248
-1.32621492e-06
1.45300949e-06
0.000172211295
-2.34860846e-06
1.22562126e-06
0.000172180454
-3.39322505e-06
1.03943592e-06
0.000172380985
-4.43955215e-06
8.81413309e-07
0.000172808906
-5.46357391e-06
7.44351184e-07
0.000173461469
-6.43659162e-06
6.23985833e-07
0.000174333705
-7.32425583e-06
5.1756716e-07
0.000175415254
-8.0860442e-06
4.23182612e-07
0.000176687215
-8.6755156e-06
3.3945463e-07
0.000178119128
-9.04172752e-06
2.65401458e-07
0.000179666456
-9.13223758e-06
2.00371188e-07
0.000181269248
-8.8980191e-06
1.43995861e-07
0.000182852878
-8.30034183e-06
9.6131853e-08
0.000184331717
-7.31911276e-06
5.67665568e-08
-5.96134415e-06
2.587492e-08
0.000185616325
0.000434487566
6.24061607e-07
6.56711487e-05
0.000357022821
1.60787847e-06
7.78732498e-05
0.000294985769
2.30788297e-06
6.26289001e-05
0.000250564491
2.75664963e-06
4.51416819e-05
0.00022083912
2.97739762e-06
3.05298704e-05
0.000201958625
2.98787897e-06
1.97337104e-05
0.000190295512
2.80760333e-06
1.25385767e-05
0.000183123214
2.45685822e-06
8.05219341e-06
0.000178646168
1.95486587e-06
5.35154654e-06
0.000175764467
1.31963804e-06
3.74808996e-06
0.000173842491
5.67788491e-07
2.7836795e-06
0.00017253031
-2.85639691e-07
2.17780204e-06
0.000171641722
-1.2267446e-06
1.7710322e-06
0.000171080978
-2.24186772e-06
1.47639693e-06
0.000170801581
-3.31658607e-06
1.24737451e-06
0.000170783541
-4.43457314e-06
1.0593885e-06
0.000171020876
-5.57623742e-06
8.99350967e-07
0.000171514432
-6.71715056e-06
7.60021182e-07
0.000172267143
-7.82638094e-06
6.3707828e-07
0.00017328009
-8.86491746e-06
5.2771481e-07
0.000174548515
-9.78445401e-06
4.29985409e-07
0.000176057485
-1.05270005e-05
3.42515409e-07
0.00017777729
-1.10259146e-05
2.64382312e-07
0.000179659084
-1.12091039e-05
1.95072456e-07
0.000181631754
-1.10051453e-05
1.34455616e-07
0.000183601474
-1.03527958e-05
8.27345038e-08
0.000185455619
-9.21359156e-06
4.03333045e-08
-7.58589161e-06
7.6806979e-09
0.000187072486
0.000434452487
4.88527237e-07
6.56830481e-05
0.000356898015
1.25900157e-06
7.79033512e-05
0.000294737145
1.80091266e-06
6.26678417e-05
0.000250176927
2.13617668e-06
4.51806911e-05
0.000220310171
2.27920975e-06
3.0564945e-05
0.000201292911
2.24048643e-06
1.97646527e-05
0.000189501411
2.03259321e-06
1.25665097e-05
0.000182210999
1.66901994e-06
8.0782505e-06
0.000177626885
1.16244461e-06
5.37653546e-06
0.000174649404
5.24721734e-07
3.77239729e-06
0.000172643032
-2.33218841e-07
2.80737844e-06
0.000171258081
-1.10150207e-06
2.200814e-06
0.000170309085
-2.0708412e-06
1.7930919e-06
0.000169701698
-3.1317604e-06
1.49727968e-06
0.000169391771
-4.27357693e-06
1.26691876e-06
0.000169362941
-5.48313078e-06
1.07738725e-06
0.000169614352
-6.74320727e-06
9.15560026e-07
0.000170153549
-8.03046545e-06
7.74118028e-07
0.000170991619
-9.31310278e-06
6.48651794e-07
0.000172138823
-1.05483931e-05
5.36272089e-07
0.000173599706
-1.16803076e-05
4.34970755e-07
0.000175367264
-1.26379102e-05
3.43352394e-07
0.000177416123
-1.33353234e-05
2.60549295e-07
0.000179695314
-1.36745133e-05
1.86218858e-07
0.000182121957
-1.3552351e-05
1.20561604e-07
0.000184578169
-1.28733091e-05
6.43014753e-08
0.000186914226
-1.15682141e-05
1.85645602e-08
-9.61755519e-06
-1.54818953e-08
0.000188961372
0.000434422125
3.73120923e-07
6.56932819e-05
0.00035678989
9.61983352e-07
7.79292545e-05
0.000294520973
1.36840465e-06
6.27014268e-05
0.000249837931
1.60477401e-06
4.52144453e-05
0.000219843707
1.67800484e-06
3.05954299e-05
0.000200699881
1.59263696e-06
1.97916757e-05
0.000188785723
1.35575041e-06
1.25910007e-05
0.000181378203
9.75379874e-07
8.10116028e-06
0.000176683344
4.58750181e-07
5.3985534e-06
0.000173601873
-1.87729555e-07
3.79392157e-06
0.000171498587
-9.58485899e-07
2.82855296e-06
0.000170024398
-1.84875197e-06
2.22143865e-06
0.000168994856
-2.85423897e-06
1.81294034e-06
0.000168317335
-3.97044824e-06
1.51620843e-06
0.000167950605
-5.19159003e-06
1.28474352e-06
0.000167882826
-6.509241e-06
1.09388999e-06
0.000168119614
-7.91043468e-06
9.30439975e-07
0.000168677222
-9.37504394e-06
7.86971102e-07
0.000169577873
-1.08727081e-05
6.58954506e-07
0.000170845105
-1.23590001e-05
5.43375384e-07
0.000172497992
-1.377131e-05
4.38115877e-07
0.000174543567
-1.50252083e-05
3.41722404e-07
0.000176967037
-1.60121655e-05
2.53372124e-07
0.000179720216
-1.66006325e-05
1.72939822e-07
0.000182709791
-1.66430276e-05
1.01100984e-07
0.00018578878
-1.59916845e-05
3.93851749e-08
0.000188756554
-1.45260384e-05
-9.95010961e-09
-1.2191102e-05
-4.44625265e-08
0.000191374563
0.000434395332
2.7555228e-07
6.57022377e-05
0.000356694415
7.10985463e-07
7.79519155e-05
0.000294329445
1.00249066e-06
6.27308851e-05
0.000249535916
1.1541618e-06
4.52441421e-05
0.000219424986
1.1665962e-06
3.06223392e-05
0.00020016254
1.03947671e-06
1.98156066e-05
0.000188130111
7.75437533e-07
1.26127423e-05
0.000180605893
3.78074038e-07
8.12152435e-06
0.000175796485
-1.50048917e-07
5.41820741e-06
0.000172602859
-8.07425268e-07
3.81332095e-06
0.00017039014
-1.59343567e-06
2.84766873e-06
0.00016880975
-2.50845488e-06
2.24009232e-06
0.000167678137
-3.55365339e-06
1.83102826e-06
0.000166904438
-4.73032945e-06
1.5335797e-06
0.000166450545
-6.03891139e-06
1.30121476e-06
0.000166309669
-7.47756799e-06
1.10920383e-06
0.000166494987
-9.03999001e-06
9.44237619e-07
0.000167033557
-1.07123677e-05
7.9875482e-07
0.000167962083
-1.24692891e-05
6.68054991e-07
0.000169322403
-1.4268254e-05
5.48933651e-07
0.000171155237
-1.60432371e-05
4.39094017e-07
0.000173490746
-1.76976826e-05
3.36964495e-07
0.000176335067
-1.90982347e-05
2.41747607e-07
0.00017965252
-2.00716944e-05
1.53608465e-07
0.00018334493
-2.04093821e-05
7.39439487e-08
0.000187232568
-1.98848923e-05
5.56836204e-09
0.000191045569
-1.82916788e-05
-4.73601097e-08
-1.55055708e-05
-8.00894611e-08
0.000194440127
0.000434371319
1.94044806e-07
6.57101894e-05
0.000356608824
5.01471115e-07
7.79720095e-05
0.000294157204
6.97026407e-07
6.27570858e-05
0.000249262915
7.77818323e-07
4.52706333e-05
0.000219043847
7.3926108e-07
3.06464037e-05
0.00019966916
5.77116434e-07
1.98370477e-05
0.000187521919
2.90446661e-07
1.26322321e-05
0.000179881031
-1.20875221e-07
8.13983776e-06
0.000174953241
-6.58317091e-07
5.43605847e-06
0.000171639482
-1.32460324e-06
3.83093679e-06
0.000169304834
-2.12378969e-06
2.86500143e-06
0.000167600731
-3.06147457e-06
2.25712248e-06
0.000166344074
-4.14464916e-06
1.84765272e-06
0.000165445333
-5.38124059e-06
1.5496529e-06
0.000164869197
-6.77930586e-06
1.31653071e-06
0.000164613861
-8.34569948e-06
1.12346782e-06
0.000164700686
-1.00838309e-05
9.57016179e-07
0.000165169202
-1.19903025e-05
8.09419923e-07
0.000166073965
-1.40497833e-05
6.75730927e-07
0.000167480999
-1.62277454e-05
5.52457658e-07
0.000169461799
-1.8461051e-05
4.37013149e-07
0.000172082635
-2.0646123e-05
3.27604174e-07
0.000175387031
-2.26260456e-05
2.23413401e-07
0.00017936969
-2.41793579e-05
1.25004079e-07
0.000183941784
-2.50163896e-05
3.49126e-08
0.000188892898
-2.4794074e-05
-4.19325875e-08
0.000193861332
-2.31623857e-05
-9.77282388e-08
-1.9863034e-05
-1.23141076e-07
0.000198341936
0.000434349568
1.2715361e-07
6.57173232e-05
0.000356531302
3.29742291e-07
7.79899964e-05
0.000294000738
4.4697286e-07
6.27806178e-05
0.000249013734
4.70327693e-07
4.52944957e-05
0.000218693726
3.91150715e-07
3.06681191e-05
0.000199212248
2.02195827e-07
1.98563995e-05
0.000186953238
-1.00408152e-07
1.26498649e-05
0.000179195745
-5.19951138e-07
8.1565694e-06
0.000174146147
-1.06105888e-06
5.45234018e-06
0.000170704831
-1.73020041e-06
3.84691287e-06
0.0001682361
-2.53586608e-06
2.88080705e-06
0.000166390638
-3.48875332e-06
2.27274025e-06
0.00016498491
-4.60190476e-06
1.86298401e-06
0.000163929703
-5.89057468e-06
1.56454206e-06
0.000163191433
-7.37178351e-06
1.33074794e-06
0.000162772406
-9.0633319e-06
1.13665941e-06
0.000162701795
-1.09818552e-05
9.68635446e-07
0.000163032248
-1.31393984e-05
8.1864379e-07
0.000163838874
-1.55377779e-05
6.81368802e-07
0.000165218018
-1.81597613e-05
5.52871216e-07
0.000167282946
-2.09560603e-05
4.30080604e-07
0.000170153481
-2.38274507e-05
3.10791523e-07
0.000173935591
-2.66022216e-05
1.94065769e-07
0.000178685401
-2.90101707e-05
8.10018493e-08
0.000184354291
-3.06611383e-05
-2.41420664e-08
0.000190718172
-3.10450256e-05
-1.12930407e-07
0.000197301645
-2.95753134e-05
-1.70546129e-07
-2.57355465e-05
-1.78610391e-07
0.000203352767
0.000434329771
7.36248031e-08
6.57237583e-05
0.000356460757
1.92585421e-07
7.80061711e-05
0.000293857962
2.47916735e-07
6.28018514e-05
0.000248785355
2.26848933e-07
4.53160873e-05
0.000218370908
1.17814348e-07
3.06877835e-05
0.000198787803
-8.86634692e-08
1.98739651e-05
0.000186420268
-3.98888435e-07
1.26660164e-05
0.000178546827
-8.18373287e-07
8.171863e-06
0.000173372989
-1.35429907e-06
5.46707843e-06
0.000169797812
-2.01644694e-06
3.86142371e-06
0.000167183933
-2.81721387e-06
2.89522696e-06
0.000165180205
-3.77207339e-06
2.28704761e-06
0.000163601294
-4.90007074e-06
1.87707754e-06
0.000162356626
-6.22415763e-06
1.57825094e-06
0.000161412387
-7.7713411e-06
1.34379723e-06
0.000160772864
-9.57240938e-06
1.14860107e-06
0.000160473033
-1.16607704e-05
9.78746776e-07
0.000160577558
-1.4069717e-05
8.2579381e-07
0.000161182999
-1.68270786e-05
6.83858682e-07
0.000162420745
-1.99457773e-05
5.48269969e-07
0.000164457416
-2.34078384e-05
4.15106419e-07
0.000167488707
-2.71401096e-05
2.81366217e-07
0.000171719126
-3.09784043e-05
1.45763204e-07
0.000177317526
-3.46187766e-05
1.02049301e-08
0.000184337434
-3.7563217e-05
-1.17829696e-07
0.000192591936
-3.90758555e-05
-2.23673254e-07
0.000201485999
-3.81901433e-05
-2.79234107e-07
-3.38950946e-05
-2.53418834e-07
0.000209898964
0.000434311785
3.22715604e-08
6.57295684e-05
0.000356396673
8.69929453e-08
7.80207045e-05
0.000293727905
9.57005503e-08
6.28209847e-05
0.000248576441
4.27278315e-08
4.53355859e-05
0.000218074017
-8.53676997e-08
3.07056072e-05
0.000198394817
-2.99483224e-07
1.98900204e-05
0.000185922722
-6.07539438e-07
1.26807467e-05
0.00017793526
-1.01655763e-06
8.18564668e-06
0.000172636412
-1.53582114e-06
5.48037057e-06
0.000168923054
-2.17764423e-06
3.87455492e-06
0.000166155144
-2.95761586e-06
2.90831187e-06
0.000163978353
-3.89534273e-06
2.30006113e-06
0.000162203746
-5.01537146e-06
1.88990792e-06
0.000160737028
-6.34813557e-06
1.59069561e-06
0.000159541129
-7.93095041e-06
1.35550922e-06
0.000158618606
-9.80887392e-06
1.15898794e-06
0.000158006029
-1.20350075e-05
9.86814494e-07
0.000157775901
-1.46695154e-05
8.29925904e-07
0.000158043415
-1.77761188e-05
6.81525633e-07
0.000158975918
-2.14139629e-05
5.35681936e-07
0.000160802541
-2.56213386e-05
3.86876636e-07
0.000163818725
-3.03866791e-05
2.30384271e-07
0.000168375257
-3.5598606e-05
6.36694159e-08
0.000174835847
-4.09688438e-05
-1.10523807e-07
0.000183476072
-4.5924911e-05
-2.78532219e-07
0.000194279938
-4.94679138e-05
-4.11808671e-07
0.000206597738
-5.00594537e-05
-4.48491164e-07
-4.57071222e-05
-3.45424575e-07
0.000218755188
0.00043429565