/*--------------------------------*- C++ -*----------------------------------*\
| =========                 |                                                 |
| \\      /  F ield         | foam-extend: Open Source CFD                    |
|  \\    /   O peration     | Version:     4.1                                |
|   \\  /    A nd           | Web:         http://www.foam-extend.org         |
|    \\/     M anipulation  |                                                 |
\*---------------------------------------------------------------------------*/
FoamFile
{
    version     2.0;
    format      ascii;
    class       pointVectorField;
    location    "0.25";
    object      pointMotionU;
}
// * * * * * * * * * * * * * * * * * * * * * * * * * * * * * * * * * * * * * //

dimensions      [0 1 -1 0 0 0 0];

internalField   nonuniform List<vector> 
40832
(
(0 0 0)
(0 0 0)
(0 0 0)
(0 0 0)
(0 0 0)
(0 0 0)
(0 0 0)
(0 0 0)
(0 0 0)
(0 0 0)
(0 0 0)
(0 0 0)
(0 0 0)
(0 0 0)
(0 0 0)
(0 0 0)
(0 0 0)
(0 0 0)
(0 0 0)
(0 0 0)
(0 0 0)
(0 0 0)
(0 0 0)
(0 0 0)
(0 0 0)
(0 0 0)
(0 0 0)
(0 0 0)
(0 0 0)
(0 0 0)
(0 0 0)
(0 0 0)
(0 0 0)
(0 0 0)
(0 0 0)
(0 0 0)
(0 0 0)
(0 0 0)
(0 0 0)
(0 0 0)
(0 0 0)
(0 0 0)
(0 0 0)
(0 0 0)
(0 0 0)
(0 0 0)
(0 0 0)
(0 0 0)
(0 0 0)
(0 0 0)
(0 0 0)
(0 0 0)
(0 0 0)
(0 0 0)
(0 0 0)
(0 0 0)
(0 0 0)
(0 0 0)
(0 0 0)
(0 0 0)
(0 0 0)
(0 0 0)
(0 0 0)
(0 0 0)
(0 0 0)
(0 0 0)
(0 0 0)
(0 0 0)
(0 0 0)
(0 0 0)
(0 0 0)
(0 0 0)
(0 0 0)
(0 0 0)
(0 0 0)
(0 0 0)
(0 0 0)
(0 0 0)
(0 0 0)
(0 0 0)
(0 0 0)
(0 0 0)
(0 0 0)
(0 0 0)
(0 0 0)
(0 0 0)
(0 0 0)
(0 0 0)
(0 0 0)
(0 0 0)
(0 0 0)
(0 0 0)
(0 0 0)
(0 0 0)
(0 0 0)
(0 0 0)
(0 0 0)
(0 0 0)
(0 0 0)
(0 0 0)
(0 0 0)
(0 0 0)
(0 0 0)
(0 0 0)
(0 0 0)
(0 0 0)
(0 0 0)
(0 0 0)
(0 0 0)
(0 0 0)
(0 0 0)
(0 0 0)
(0 0 0)
(0 0 0)
(0 0 0)
(0 0 0)
(0 0 0)
(0 0 0)
(0 0 0)
(0 0 0)
(0 0 0)
(0 0 0)
(0 0 0)
(0 0 0)
(0 0 0)
(0 0 0)
(0 0 0)
(0 0 0)
(0 0 0)
(0 0 0)
(0 0 0)
(0 0 0)
(0 0 0)
(0 0 0)
(0 0 0)
(0 0 0)
(0 0 0)
(0 0 0)
(0 0 0)
(0 0 0)
(0 0 0)
(0 0 0)
(0 0 0)
(0 0 0)
(0 0 0)
(0 0 0)
(0 0 0)
(0 0 0)
(0 0 0)
(0 0 0)
(0 0 0)
(0 0 0)
(0 0 0)
(0 0 0)
(0 0 0)
(0 0 0)
(0 0 0)
(0 0 0)
(0 0 0)
(0 0 0)
(0 0 0)
(0 0 0)
(0 0 0)
(0 0 0)
(0 0 0)
(0 0 0)
(0 0 0)
(0 0 0)
(0 0 0)
(0 0 0)
(0 0 0)
(0 0 0)
(0 0 0)
(0 0 0)
(0 0 0)
(0 0 0)
(0 0 0)
(0 0 0)
(0 0 0)
(0 0 0)
(0 0 0)
(0 0 0)
(0 0 0)
(0 0 0)
(0 0 0)
(0 0 0)
(0 0 0)
(0 0 0)
(0 0 0)
(0 0 0)
(0 0 0)
(0 0 0)
(0 0 0)
(0 0 0)
(0 0 0)
(0 0 0)
(0 0 0)
(0 0 0)
(0 0 0)
(0 0 0)
(0 0 0)
(0 0 0)
(0 0 0)
(0 0 0)
(0 0 0)
(0 0 0)
(0 0 0)
(0 0 0)
(0 0 0)
(0 0 0)
(0 0 0)
(0 0 0)
(0 0 0)
(0 0 0)
(0 0 0)
(0 0 0)
(0 0 0)
(0 0 0)
(0 0 0)
(0 0 0)
(0 0 0)
(0 0 0)
(0 0 0)
(0 0 0)
(0 0 0)
(0 0 0)
(0 0 0)
(0 0 0)
(0 0 0)
(0 0 0)
(0 0 0)
(0 0 0)
(0 0 0)
(0 0 0)
(0 0 0)
(0 0 0)
(0 0 0)
(0 0 0)
(0 0 0)
(0 0 0)
(0 0 0)
(0 0 0)
(0 0 0)
(0 0 0)
(0 0 0)
(0 0 0)
(0 0 0)
(0 0 0)
(0 0 0)
(0 0 0)
(0 0 0)
(0 0 0)
(0 0 0)
(0 0 0)
(0 0 0)
(0 0 0)
(0 0 0)
(0 0 0)
(0 0 0)
(0 0 0)
(0 0 0)
(0 0 0)
(0 0 0)
(0 0 0)
(0 0 0)
(0 0 0)
(0 0 0)
(0 0 0)
(0 0 0)
(0 0 0)
(0 0 0)
(0 0 0)
(0 0 0)
(0 0 0)
(0 0 0)
(0 0 0)
(0 0 0)
(0 0 0)
(0 0 0)
(0 0 0)
(0 0 0)
(0 0 0)
(0 0 0)
(0 0 0)
(0 0 0)
(0 0 0)
(0 0 0)
(0 0 0)
(0 0 0)
(0 0 0)
(0 0 0)
(0 0 0)
(0 0 0)
(0 0 0)
(0 0 0)
(0 0 0)
(0 0 0)
(0 0 0)
(0 0 0)
(0 0 0)
(0 0 0)
(0 0 0)
(0 0 0)
(0 0 0)
(0 0 0)
(0 0 0)
(0 0 0)
(0 0 0)
(0 0 0)
(0 0 0)
(0 0 0)
(0 0 0)
(0 0 0)
(0 0 0)
(0 0 0)
(0 0 0)
(0 0 0)
(0 0 0)
(0 0 0)
(0 0 0)
(0 0 0)
(0 0 0)
(0 0 0)
(0 0 0)
(0 0 0)
(0 0 0)
(0 0 0)
(0 0 0)
(0 0 0)
(0 0 0)
(0 0 0)
(0 0 0)
(0 0 0)
(0 0 0)
(0 0 0)
(0 0 0)
(0 0 0)
(0 0 0)
(0 0 0)
(0 0 0)
(0 0 0)
(0 0 0)
(0 0 0)
(0 0 0)
(0 0 0)
(0 0 0)
(0 0 0)
(0 0 0)
(0 0 0)
(0 0 0)
(0 0 0)
(0 0 0)
(0 0 0)
(0 0 0)
(0 0 0)
(0 0 0)
(0 0 0)
(0 0 0)
(0 0 0)
(0 0 0)
(0 0 0)
(0 0 0)
(0 0 0)
(0 0 0)
(0 0 0)
(0 0 0)
(0 0 0)
(0 0 0)
(0 0 0)
(0 0 0)
(0 0 0)
(0 0 0)
(0 0 0)
(0 0 0)
(0 0 0)
(0 0 0)
(0 0 0)
(0 0 0)
(0 0 0)
(0 0 0)
(0 0 0)
(0 0 0)
(0 0 0)
(0 0 0)
(0 0 0)
(0 0 0)
(0 0 0)
(0 0 0)
(0 0 0)
(0 0 0)
(0 0 0)
(0 0 0)
(0 0 0)
(0 0 0)
(0 0 0)
(0 0 0)
(0 0 0)
(0 0 0)
(0 0 0)
(0 0 0)
(0 0 0)
(0 0 0)
(0 0 0)
(0 0 0)
(0 0 0)
(0 0 0)
(0 0 0)
(0 0 0)
(0 0 0)
(0 0 0)
(0 0 0)
(0 0 0)
(0 0 0)
(0 0 0)
(0 0 0)
(0 0 0)
(0 0 0)
(0 0 0)
(0 0 0)
(0 0 0)
(0 0 0)
(0 0 0)
(0 0 0)
(0 0 0)
(0 0 0)
(0 0 0)
(0 0 0)
(0 0 0)
(0 0 0)
(0 0 0)
(0 0 0)
(0 0 0)
(0 0 0)
(0 0 0)
(0 0 0)
(0 0 0)
(0 0 0)
(0 0 0)
(0 0 0)
(0 0 0)
(0 0 0)
(0 0 0)
(0 0 0)
(0 0 0)
(0 0 0)
(0 0 0)
(0 0 0)
(0 0 0)
(0 0 0)
(0 0 0)
(0 0 0)
(0 0 0)
(0 0 0)
(0 0 0)
(0 0 0)
(0 0 0)
(0 0 0)
(0 0 0)
(0 0 0)
(0 0 0)
(0 0 0)
(0 0 0)
(0 0 0)
(0 0 0)
(0 0 0)
(0 0 0)
(0 0 0)
(0 0 0)
(0 0 0)
(0 0 0)
(0 0 0)
(0 0 0)
(0 0 0)
(0 0 0)
(0 0 0)
(0 0 0)
(0 0 0)
(0 0 0)
(0 0 0)
(0 0 0)
(0 0 0)
(0 0 0)
(0 0 0)
(0 0 0)
(0 0 0)
(0 0 0)
(0 0 0)
(0 0 0)
(0 0 0)
(0 0 0)
(0 0 0)
(0 0 0)
(0 0 0)
(0 0 0)
(0 0 0)
(0 0 0)
(0 0 0)
(0 0 0)
(0 0 0)
(0 0 0)
(0 0 0)
(0 0 0)
(0 0 0)
(0 0 0)
(0 0 0)
(0 0 0)
(0 0 0)
(0 0 0)
(0 0 0)
(0 0 0)
(0 0 0)
(0 0 0)
(0 0 0)
(0 0 0)
(0 0 0)
(0 0 0)
(0 0 0)
(0 0 0)
(0 0 0)
(0 0 0)
(0 0 0)
(0 0 0)
(0 0 0)
(0 0 0)
(0 0 0)
(0 0 0)
(0 0 0)
(0 0 0)
(0 0 0)
(0 0 0)
(0 0 0)
(0 0 0)
(0 0 0)
(0 0 0)
(0 0 0)
(0 0 0)
(0 0 0)
(0 0 0)
(0 0 0)
(0 0 0)
(0 0 0)
(0 0 0)
(0 0 0)
(0 0 0)
(0 0 0)
(0 0 0)
(0 0 0)
(0 0 0)
(0 0 0)
(0 0 0)
(0 0 0)
(0 0 0)
(0 0 0)
(0 0 0)
(0 0 0)
(0 0 0)
(0 0 0)
(0 0 0)
(0 0 0)
(0 0 0)
(0 0 0)
(0 0 0)
(0 0 0)
(0 0 0)
(0 0 0)
(0 0 0)
(0 0 0)
(0 0 0)
(0 0 0)
(0 0 0)
(0 0 0)
(0 0 0)
(0 0 0)
(0 0 0)
(0 0 0)
(0 0 0)
(0 0 0)
(0 0 0)
(0 0 0)
(0 0 0)
(0 0 0)
(0 0 0)
(0 0 0)
(0 0 0)
(0 0 0)
(0 0 0)
(0 0 0)
(0 0 0)
(0 0 0)
(0 0 0)
(0 0 0)
(0 0 0)
(0 0 0)
(0 0 0)
(0 0 0)
(0 0 0)
(0 0 0)
(0 0 0)
(0 0 0)
(0 0 0)
(0 0 0)
(0 0 0)
(0 0 0)
(0 0 0)
(0 0 0)
(0 0 0)
(0 0 0)
(0 0 0)
(0 0 0)
(0 0 0)
(0 0 0)
(0 0 0)
(0 0 0)
(0 0 0)
(0 0 0)
(0 0 0)
(0 0 0)
(0 0 0)
(0 0 0)
(0 0 0)
(0 0 0)
(0 0 0)
(0 0 0)
(0 0 0)
(0 0 0)
(0 0 0)
(0 0 0)
(0 0 0)
(0 0 0)
(0 0 0)
(0 0 0)
(0 0 0)
(0 0 0)
(0 0 0)
(0 0 0)
(0 0 0)
(0 0 0)
(0 0 0)
(0 0 0)
(0 0 0)
(0 0 0)
(0 0 0)
(0 0 0)
(0 0 0)
(0 0 0)
(0 0 0)
(0 0 0)
(0 0 0)
(0 0 0)
(0 0 0)
(0 0 0)
(0 0 0)
(0 0 0)
(0 0 0)
(0 0 0)
(0 0 0)
(0 0 0)
(0 0 0)
(0 0 0)
(0 0 0)
(0 0 0)
(0 0 0)
(0 0 0)
(0 0 0)
(0 0 0)
(0 0 0)
(0 0 0)
(0 0 0)
(0 0 0)
(0 0 0)
(0 0 0)
(0 0 0)
(0 0 0)
(0 0 0)
(0 0 0)
(0 0 0)
(0 0 0)
(0 0 0)
(0 0 0)
(0 0 0)
(0 0 0)
(0 0 0)
(0 0 0)
(0 0 0)
(0 0 0)
(0 0 0)
(0 0 0)
(0 0 0)
(0 0 0)
(0 0 0)
(0 0 0)
(0 0 0)
(0 0 0)
(0 0 0)
(0 0 0)
(0 0 0)
(0 0 0)
(0 0 0)
(0 0 0)
(0 0 0)
(0 0 0)
(0 0 0)
(0 0 0)
(0 0 0)
(0 0 0)
(0 0 0)
(0 0 0)
(0 0 0)
(0 0 0)
(0 0 0)
(0 0 0)
(0 0 0)
(0 0 0)
(0 0 0)
(0 0 0)
(0 0 0)
(0 0 0)
(0 0 0)
(0 0 0)
(0 0 0)
(0 0 0)
(0 0 0)
(0 0 0)
(0 0 0)
(0 0 0)
(0 0 0)
(0 0 0)
(0 0 0)
(0 0 0)
(0 0 0)
(0 0 0)
(0 0 0)
(0 0 0)
(0 0 0)
(0 0 0)
(0 0 0)
(0 0 0)
(0 0 0)
(0 0 0)
(0 0 0)
(0 0 0)
(0 0 0)
(0 0 0)
(0 0 0)
(0 0 0)
(0 0 0)
(0 0 0)
(0 0 0)
(0 0 0)
(0 0 0)
(0 0 0)
(0 0 0)
(0 0 0)
(0 0 0)
(0 0 0)
(0 0 0)
(0 0 0)
(0 0 0)
(0 0 0)
(0 0 0)
(0 0 0)
(0 0 0)
(0 0 0)
(0 0 0)
(0 0 0)
(0 0 0)
(0 0 0)
(0 0 0)
(0 0 0)
(0 0 0)
(0 0 0)
(0 0 0)
(0 0 0)
(0 0 0)
(0 0 0)
(0 0 0)
(0 0 0)
(0 0 0)
(0 0 0)
(0 0 0)
(0 0 0)
(0 0 0)
(0 0 0)
(0 0 0)
(0 0 0)
(0 0 0)
(0 0 0)
(0 0 0)
(0 0 0)
(0 0 0)
(0 0 0)
(0 0 0)
(0 0 0)
(0 0 0)
(0 0 0)
(0 0 0)
(0 0 0)
(0 0 0)
(0 0 0)
(0 0 0)
(0 0 0)
(0 0 0)
(0 0 0)
(0 0 0)
(0 0 0)
(0 0 0)
(0 0 0)
(0 0 0)
(0 0 0)
(0 0 0)
(0 0 0)
(0 0 0)
(0 0 0)
(0 0 0)
(0 0 0)
(0 0 0)
(0 0 0)
(0 0 0)
(0 0 0)
(0 0 0)
(0 0 0)
(0 0 0)
(0 0 0)
(0 0 0)
(0 0 0)
(0 0 0)
(0 0 0)
(0 0 0)
(0 0 0)
(0 0 0)
(0 0 0)
(0 0 0)
(0 0 0)
(0 0 0)
(0 0 0)
(0 0 0)
(0 0 0)
(0 0 0)
(0 0 0)
(0 0 0)
(0 0 0)
(0 0 0)
(0 0 0)
(0 0 0)
(0 0 0)
(0 0 0)
(0 0 0)
(0 0 0)
(0 0 0)
(0 0 0)
(0 0 0)
(0 0 0)
(0 0 0)
(0 0 0)
(0 0 0)
(0 0 0)
(0 0 0)
(0 0 0)
(0 0 0)
(0 0 0)
(0 0 0)
(0 0 0)
(0 0 0)
(0 0 0)
(0 0 0)
(0 0 0)
(0 0 0)
(0 0 0)
(0 0 0)
(0 0 0)
(0 0 0)
(-1.0116033e-20 1.13299443e-08 -1.92369612e-21)
(-2.0440065e-20 2.28926912e-08 -3.88693821e-21)
(-3.13561453e-20 3.51181297e-08 -5.96274928e-21)
(-4.33310182e-20 4.85287242e-08 -8.23987521e-21)
(-5.68270895e-20 6.36421062e-08 -1.08062323e-20)
(-7.23083216e-20 8.0977654e-08 -1.37500261e-20)
(-9.02429015e-20 1.01059475e-07 -1.71602567e-20)
(-1.11102075e-19 1.24415101e-07 -2.11264936e-20)
(-1.35354586e-19 1.51569259e-07 -2.57378158e-20)
(-1.63456232e-19 1.83032181e-07 -3.10808215e-20)
(-1.95834169e-19 2.19282037e-07 -3.72366422e-20)
(-2.3286585e-19 2.60741346e-07 -4.42769334e-20)
(-2.74852786e-19 3.07747609e-07 -5.22588854e-20)
(-3.21989837e-19 3.60518921e-07 -6.12193855e-20)
(-3.74331307e-19 4.19116025e-07 -7.11685765e-20)
(-4.31755844e-19 4.83403016e-07 -8.20831921e-20)
(-4.93932838e-19 5.53009727e-07 -9.39001834e-20)
(-5.60293701e-19 6.27299596e-07 -1.0651128e-19)
(-6.30011887e-19 7.05347309e-07 -1.19759216e-19)
(-7.01995659e-19 7.85930716e-07 -1.33436388e-19)
(-7.74897308e-19 8.67541168e-07 -1.47286633e-19)
(-8.4714165e-19 9.48415422e-07 -1.61010673e-19)
(-9.16975152e-19 1.02659065e-06 -1.7427547e-19)
(-9.8253506e-19 1.09998179e-06 -1.86727362e-19)
(-1.04193556e-18 1.166478e-06 -1.98008427e-19)
(-1.09336577e-18 1.22405233e-06 -2.07775064e-19)
(-1.13519253e-18 1.27087671e-06 -2.15717481e-19)
(-1.16606025e-18 1.30543375e-06 -2.21578598e-19)
(0 0 0)
(-2.04431748e-20 2.28961764e-08 -3.88752957e-21)
(-4.13012482e-20 4.62566964e-08 -7.85394038e-21)
(-6.33560954e-20 7.09567619e-08 -1.20478964e-20)
(-8.75611214e-20 9.80636051e-08 -1.6650674e-20)
(-1.14860845e-19 1.28634553e-07 -2.18418496e-20)
(-1.46203802e-19 1.63731436e-07 -2.78017488e-20)
(-1.82548678e-19 2.04427447e-07 -3.47126065e-20)
(-2.2486252e-19 2.51805137e-07 -4.27582211e-20)
(-2.74109899e-19 3.06944279e-07 -5.21218852e-20)
(-3.31231983e-19 3.70898439e-07 -6.29823998e-20)
(-3.97114755e-19 4.44659395e-07 -7.55080219e-20)
(-4.72546012e-19 5.29108993e-07 -8.98482828e-20)
(-5.58161513e-19 6.24958852e-07 -1.06123744e-19)
(-6.54381585e-19 7.32679397e-07 -1.24413948e-19)
(-7.61340753e-19 8.52421077e-07 -1.44744044e-19)
(-8.78814409e-19 9.83932291e-07 -1.67070874e-19)
(-1.00614808e-18 1.12648021e-06 -1.91269553e-19)
(-1.14219629e-18 1.27878237e-06 -2.17121894e-19)
(-1.28527905e-18 1.43895801e-06 -2.44308203e-19)
(-1.43316455e-18 1.60450872e-06 -2.72404057e-19)
(-1.58308588e-18 1.7723372e-06 -3.00883551e-19)
(-1.73179806e-18 1.9388111e-06 -3.29130206e-19)
(-1.87567838e-18 2.09987541e-06 -3.56456079e-19)
(-2.01086915e-18 2.25121218e-06 -3.82128902e-19)
(-2.1334567e-18 2.38844091e-06 -4.0540606e-19)
(-2.23967571e-18 2.50734714e-06 -4.25573339e-19)
(-2.32612377e-18 2.60412261e-06 -4.4198556e-19)
(-2.38996866e-18 2.67559717e-06 -4.54105829e-19)
(0 0 0)
(-3.13657236e-20 3.51288665e-08 -5.96457071e-21)
(-6.33658656e-20 7.09677158e-08 -1.20497543e-20)
(-9.72182465e-20 1.0887973e-07 -1.84870999e-20)
(-1.34413212e-19 1.50533201e-07 -2.55599701e-20)
(-1.76428959e-19 1.97582875e-07 -3.35493987e-20)
(-2.24753594e-19 2.51694607e-07 -4.27382773e-20)
(-2.80896422e-19 3.14557976e-07 -5.34134914e-20)
(-3.46386685e-19 3.87884873e-07 -6.5865668e-20)
(-4.22757936e-19 4.73392004e-07 -8.0386191e-20)
(-5.11516344e-19 5.72765395e-07 -9.72611577e-20)
(-6.14091524e-19 6.87605338e-07 -1.16762014e-19)
(-7.31769136e-19 8.19350926e-07 -1.39132726e-19)
(-8.65605547e-19 9.69184508e-07 -1.64573543e-19)
(-1.01632637e-18 1.13791809e-06 -1.93221709e-19)
(-1.18421267e-18 1.32586598e-06 -2.25129844e-19)
(-1.36898106e-18 1.53271053e-06 -2.60243183e-19)
(-1.56966641e-18 1.75737091e-06 -2.98377341e-19)
(-1.78451847e-18 1.99788745e-06 -3.39198751e-19)
(-2.01092567e-18 2.25133639e-06 -3.82210298e-19)
(-2.24538023e-18 2.5137909e-06 -4.26744828e-19)
(-2.48349821e-18 2.78034364e-06 -4.71969107e-19)
(-2.72010538e-18 3.04520292e-06 -5.16900273e-19)
(-2.94939497e-18 3.30186927e-06 -5.60435907e-19)
(-3.16515636e-18 3.54339145e-06 -6.01397514e-19)
(-3.36106533e-18 3.76269128e-06 -6.38585615e-19)
(-3.53101796e-18 3.95293723e-06 -6.7084302e-19)
(-3.66948253e-18 4.10793815e-06 -6.97121431e-19)
(-3.771839e-18 4.2225232e-06 -7.16545637e-19)
(0 0 0)
(-4.33495789e-20 4.85495346e-08 -8.24340472e-21)
(-8.75855878e-20 9.80910432e-08 -1.66553265e-20)
(-1.34430259e-19 1.50552324e-07 -2.55632117e-20)
(-1.85997743e-19 2.08299966e-07 -3.53690166e-20)
(-2.44390213e-19 2.73687223e-07 -4.64723887e-20)
(-3.11732639e-19 3.4909288e-07 -5.92772653e-20)
(-3.90192039e-19 4.36942791e-07 -7.41955159e-20)
(-4.81978686e-19 5.39711209e-07 -9.16471493e-20)
(-5.89326528e-19 6.59898858e-07 -1.12056566e-19)
(-7.14450166e-19 7.99984744e-07 -1.35844345e-19)
(-8.59476018e-19 9.62349071e-07 -1.63414131e-19)
(-1.02634612e-18 1.14916552e-06 -1.95134306e-19)
(-1.21669442e-18 1.36226275e-06 -2.31314458e-19)
(-1.43169759e-18 1.60295734e-06 -2.72177003e-19)
(-1.67190526e-18 1.87186383e-06 -3.17824938e-19)
(-1.93705836e-18 2.16869134e-06 -3.68207362e-19)
(-2.22590811e-18 2.49204101e-06 -4.23085166e-19)
(-2.53605229e-18 2.83922294e-06 -4.82000093e-19)
(-2.86380919e-18 3.20611511e-06 -5.44250977e-19)
(-3.20415109e-18 3.58708917e-06 -6.0888138e-19)
(-3.55071931e-18 3.97502745e-06 -6.74682743e-19)
(-3.89593908e-18 4.36145156e-06 -7.40216474e-19)
(-4.23124532e-18 4.73677528e-06 -8.03857057e-19)
(-4.54741983e-18 5.09068191e-06 -8.63856186e-19)
(-4.83502697e-18 5.41261174e-06 -9.18425424e-19)
(-5.08492044e-18 5.69232919e-06 -9.65832176e-19)
(-5.28878143e-18 5.92052473e-06 -1.00450142e-18)
(-5.4396394e-18 6.08939761e-06 -1.03311402e-18)
(0 0 0)
(-5.68567283e-20 6.36753462e-08 -1.08118684e-20)
(-1.14904139e-19 1.2868312e-07 -2.18500823e-20)
(-1.76469178e-19 1.97628009e-07 -3.35570466e-20)
(-2.44415348e-19 2.73715439e-07 -4.64771681e-20)
(-3.21600304e-19 3.60144381e-07 -6.11536913e-20)
(-4.10928664e-19 4.6016639e-07 -7.81387154e-20)
(-5.15383514e-19 5.77120845e-07 -9.79991541e-20)
(-6.38033152e-19 7.14442471e-07 -1.2131798e-19)
(-7.82009056e-19 8.75636635e-07 -1.48689987e-19)
(-9.50451024e-19 1.06421789e-06 -1.80711308e-19)
(-1.14641566e-18 1.28360747e-06 -2.17961954e-19)
(-1.37274522e-18 1.53698641e-06 -2.60980819e-19)
(-1.63189551e-18 1.82710284e-06 -3.10232919e-19)
(-1.92572465e-18 2.15603553e-06 -3.66069206e-19)
(-2.25524848e-18 2.52492007e-06 -4.28680092e-19)
(-2.62037378e-18 2.93365033e-06 -4.98044828e-19)
(-3.01962661e-18 3.38057455e-06 -5.73880042e-19)
(-3.44989965e-18 3.86221268e-06 -6.55592006e-19)
(-3.90624806e-18 4.37302825e-06 -7.42238239e-19)
(-4.38176772e-18 4.90529233e-06 -8.32504873e-19)
(-4.86759007e-18 5.44907801e-06 -9.24706224e-19)
(-5.35302372e-18 5.99241922e-06 -1.01681225e-18)
(-5.82586304e-18 6.52165619e-06 -1.1065076e-18)
(-6.27286792e-18 7.02197236e-06 -1.1912829e-18)
(-6.68039796e-18 7.478104e-06 -1.26855508e-18)
(-7.03516171e-18 7.87517839e-06 -1.33580912e-18)
(-7.32502011e-18 8.19961259e-06 -1.39074964e-18)
(-7.53976875e-18 8.43998838e-06 -1.4314483e-18)
(0 0 0)
(-7.23510377e-20 8.10255737e-08 -1.37581488e-20)
(-1.46270094e-19 1.63805824e-07 -2.78143545e-20)
(-2.24823439e-19 2.51773012e-07 -4.27515584e-20)
(-3.11791549e-19 3.49159035e-07 -5.92884669e-20)
(-4.10964477e-19 4.60206622e-07 -7.81455251e-20)
(-5.26220201e-19 5.89256928e-07 -1.00059774e-19)
(-6.6157464e-19 7.40805484e-07 -1.25794306e-19)
(-8.21198733e-19 9.19521253e-07 -1.56141452e-19)
(-1.00939659e-18 1.1302221e-06 -1.91918534e-19)
(-1.23053885e-18 1.37780009e-06 -2.33955104e-19)
(-1.48894512e-18 1.66708979e-06 -2.83070482e-19)
(-1.78871017e-18 2.0026736e-06 -3.40040591e-19)
(-2.13347028e-18 2.38862011e-06 -4.05553445e-19)
(-2.52611039e-18 2.82815625e-06 -4.8015341e-19)
(-2.96841807e-18 3.32328005e-06 -5.64175444e-19)
(-3.46069817e-18 3.87432936e-06 -6.57671968e-19)
(-4.00137099e-18 4.47953242e-06 -7.60336792e-19)
(-4.58658711e-18 5.13457714e-06 -8.71432413e-19)
(-5.20990175e-18 5.83224706e-06 -9.89728851e-19)
(-5.86205899e-18 6.56218043e-06 -1.1134636e-18)
(-6.53093949e-18 7.31081222e-06 -1.24033276e-18)
(-7.20172081e-18 8.06155389e-06 -1.36752258e-18)
(-7.85728611e-18 8.79525112e-06 -1.49178799e-18)
(-8.4788939e-18 9.4909332e-06 -1.60958017e-18)
(-9.04708899e-18 1.01268323e-05 -1.7172194e-18)
(-9.5427988e-18 1.06816095e-05 -1.81110209e-18)
(-9.94852386e-18 1.11356869e-05 -1.88792508e-18)
(-1.02495059e-17 1.14725533e-05 -1.944905e-18)
(0 0 0)
(-9.03007197e-20 1.01124356e-07 -1.71712509e-20)
(-1.82642945e-19 2.04533259e-07 -3.47305313e-20)
(-2.81004373e-19 3.14679189e-07 -5.34340177e-20)
(-3.90296418e-19 4.37060034e-07 -7.42153625e-20)
(-5.15469543e-19 5.77217504e-07 -9.80155112e-20)
(-6.61627115e-19 7.40864455e-07 -1.25804283e-19)
(-8.34102805e-19 9.33971445e-07 -1.58595e-19)
(-1.03849551e-18 1.16280572e-06 -1.9745101e-19)
(-1.28065211e-18 1.43391177e-06 -2.43482264e-19)
(-1.56659024e-18 1.75402474e-06 -2.97830456e-19)
(-1.90235189e-18 2.1299063e-06 -3.61640983e-19)
(-2.29377807e-18 2.56809227e-06 -4.36019887e-19)
(-2.74619739e-18 3.0745439e-06 -5.21974449e-19)
(-3.26402615e-18 3.65420014e-06 -6.2033701e-19)
(-3.85028511e-18 4.31043687e-06 -7.31673097e-19)
(-4.50604907e-18 5.04445109e-06 -8.56176962e-19)
(-5.22985839e-18 5.85460274e-06 -9.93560217e-19)
(-6.01713752e-18 6.7357646e-06 -1.14294219e-18)
(-6.85968127e-18 7.67874812e-06 -1.30275359e-18)
(-7.74528361e-18 8.66988902e-06 -1.47066779e-18)
(-8.65759154e-18 9.69088448e-06 -1.64357505e-18)
(-9.57626371e-18 1.07189714e-05 -1.8176149e-18)
(-1.04774964e-17 1.17275154e-05 -1.98827775e-18)
(-1.13349457e-17 1.26870426e-05 -2.15058111e-18)
(-1.21210271e-17 1.35666936e-05 -2.29931595e-18)
(-1.28085132e-17 1.43360099e-05 -2.42934816e-18)
(-1.33722946e-17 1.4966904e-05 -2.53594931e-18)
(-1.37911242e-17 1.54356091e-05 -2.61512297e-18)
(0 0 0)
(-1.11176543e-19 1.24498692e-07 -2.11406533e-20)
(-2.24991139e-19 2.51949545e-07 -4.27826769e-20)
(-3.4654558e-19 3.88063321e-07 -6.589588e-20)
(-4.82146772e-19 5.39900028e-07 -9.1679108e-20)
(-6.38191927e-19 7.14620867e-07 -1.21348167e-19)
(-8.21329219e-19 9.19667885e-07 -1.56166259e-19)
(-1.03857493e-18 1.16289497e-06 -1.97466108e-19)
(-1.29737859e-18 1.45264059e-06 -2.46662148e-19)
(-1.60561698e-18 1.79772082e-06 -3.05249127e-19)
(-1.97150953e-18 2.20733437e-06 -3.74785713e-19)
(-2.40344208e-18 2.69086498e-06 -4.56860602e-19)
(-2.90968117e-18 3.25756131e-06 -5.53037799e-19)
(-3.49796592e-18 3.91607993e-06 -6.64778612e-19)
(-4.17496925e-18 4.67388212e-06 -7.93338891e-19)
(-4.94563078e-18 5.53648751e-06 -9.39642087e-19)
(-5.8123783e-18 6.50660311e-06 -1.10413147e-18)
(-6.77427391e-18 7.58316855e-06 -1.28660857e-18)
(-7.82614389e-18 8.76038341e-06 -1.48606929e-18)
(-8.95777719e-18 1.00268116e-05 -1.70055392e-18)
(-1.01533021e-17 1.13646855e-05 -1.92703198e-18)
(-1.13908674e-17 1.27495498e-05 -2.16134556e-18)
(-1.26427551e-17 1.415039e-05 -2.3982351e-18)
(-1.38760345e-17 1.55303634e-05 -2.63146728e-18)
(-1.50538166e-17 1.68482032e-05 -2.85407544e-18)
(-1.61370964e-17 1.80602794e-05 -3.05870929e-18)
(-1.70870793e-17 1.91231996e-05 -3.23807278e-18)
(-1.78677873e-17 1.99967243e-05 -3.38541205e-18)
(-1.84486686e-17 2.06466836e-05 -3.49500122e-18)
(0 0 0)
(-1.3544413e-19 1.51669816e-07 -2.5754841e-20)
(-2.74280578e-19 3.07135952e-07 -5.21543368e-20)
(-4.2298883e-19 4.73651318e-07 -8.04300906e-20)
(-5.8958835e-19 6.60192951e-07 -1.12106344e-19)
(-7.82278007e-19 8.75938772e-07 -1.48741118e-19)
(-1.00964796e-18 1.13050451e-06 -1.9196632e-19)
(-1.28085414e-18 1.43413877e-06 -2.43520669e-19)
(-1.60573752e-18 1.79785626e-06 -3.05272038e-19)
(-1.99483582e-18 2.23345048e-06 -3.79219254e-19)
(-2.45929804e-18 2.75339753e-06 -4.67475272e-19)
(-3.01068228e-18 3.37062939e-06 -5.7222808e-19)
(-3.66060216e-18 4.09813761e-06 -6.95672689e-19)
(-4.42020172e-18 4.94838525e-06 -8.39910496e-19)
(-5.29943945e-18 5.93250553e-06 -1.00681247e-18)
(-6.30617819e-18 7.05928354e-06 -1.19784571e-18)
(-7.44509516e-18 8.33393726e-06 -1.41386642e-18)
(-8.71645477e-18 9.75674551e-06 -1.65488771e-18)
(-1.01148187e-17 1.13216064e-05 -1.91983691e-18)
(-1.16278092e-17 1.30146554e-05 -2.20632465e-18)
(-1.32350834e-17 1.48131202e-05 -2.51045592e-18)
(-1.49077101e-17 1.6684625e-05 -2.8267193e-18)
(-1.66081524e-17 1.8587173e-05 -3.14799204e-18)
(-1.82910399e-17 2.047001e-05 -3.46569446e-18)
(-1.99048491e-17 2.22755055e-05 -3.77011425e-18)
(-2.13945034e-17 2.39420593e-05 -4.05090025e-18)
(-2.27047544e-17 2.54078826e-05 -4.29769795e-18)
(-2.37840473e-17 2.66153202e-05 -4.50086981e-18)
(-2.45884374e-17 2.75152294e-05 -4.65221968e-18)
(0 0 0)
(-1.63546115e-19 1.83133226e-07 -3.10979096e-20)
(-3.31451762e-19 3.711453e-07 -6.30241836e-20)
(-5.11856788e-19 5.73147683e-07 -9.73258818e-20)
(-7.14855041e-19 8.00439415e-07 -1.35921316e-19)
(-9.50892332e-19 1.06471349e-06 -1.807952e-19)
(-1.23098634e-18 1.37830264e-06 -2.34040167e-19)
(-1.56698872e-18 1.75447229e-06 -2.97906195e-19)
(-1.97181838e-18 2.2076813e-06 -3.74844408e-19)
(-2.45948152e-18 2.75360364e-06 -4.67510138e-19)
(-3.04499632e-18 3.40904338e-06 -5.78747629e-19)
(-3.74418319e-18 4.19169916e-06 -7.11548958e-19)
(-4.5732369e-18 5.11968453e-06 -8.68971246e-19)
(-5.54806657e-18 6.21078887e-06 -1.05400963e-18)
(-6.68335818e-18 7.4814281e-06 -1.26941753e-18)
(-7.99134893e-18 8.94527368e-06 -1.51747259e-18)
(-9.48031787e-18 1.0611565e-05 -1.79968958e-18)
(-1.11528413e-17 1.2483159e-05 -2.11649026e-18)
(-1.30039004e-17 1.45544162e-05 -2.46684754e-18)
(-1.50189937e-17 1.68090913e-05 -2.84793392e-18)
(-1.71724794e-17 1.92184818e-05 -3.2548173e-18)
(-1.94264337e-17 2.17401538e-05 -3.68025837e-18)
(-2.17303457e-17 2.43176019e-05 -4.11466929e-18)
(-2.40219562e-17 2.68811879e-05 -4.5462889e-18)
(-2.62294647e-17 2.93506096e-05 -4.96161348e-18)
(-2.82751721e-17 3.16389733e-05 -5.34609038e-18)
(-3.00803906e-17 3.36582837e-05 -5.68503909e-18)
(-3.15711877e-17 3.5325866e-05 -5.96471552e-18)
(-3.26842886e-17 3.65709658e-05 -6.17339464e-18)
(0 0 0)
(-1.95838391e-19 2.19287292e-07 -3.72374391e-20)
(-3.97383422e-19 4.44961251e-07 -7.55590945e-20)
(-6.14619786e-19 6.881983e-07 -1.16862439e-19)
(-8.60100207e-19 9.63049799e-07 -1.63532787e-19)
(-1.14712751e-18 1.28440658e-06 -2.18097264e-19)
(-1.48972545e-18 1.66796568e-06 -2.83218798e-19)
(-1.90307369e-18 2.13071662e-06 -3.6177816e-19)
(-2.40405292e-18 2.69155088e-06 -4.56976674e-19)
(-3.0111594e-18 3.37116518e-06 -5.72318724e-19)
(-3.74446844e-18 4.19201949e-06 -7.11603136e-19)
(-4.62548091e-18 5.17816405e-06 -8.7889184e-19)
(-5.67660234e-18 6.35465542e-06 -1.07840824e-18)
(-6.92034544e-18 7.74666336e-06 -1.31438263e-18)
(-8.37811829e-18 9.37811481e-06 -1.59081878e-18)
(-1.00686004e-17 1.12698778e-05 -1.91118273e-18)
(-1.20056753e-17 1.34374506e-05 -2.27800864e-18)
(-1.41959837e-17 1.58882266e-05 -2.69243523e-18)
(-1.66361791e-17 1.86184291e-05 -3.15369011e-18)
(-1.93100804e-17 2.16099291e-05 -3.65856045e-18)
(-2.21860346e-17 2.48272997e-05 -4.20091121e-18)
(-2.52149141e-17 2.82155787e-05 -4.77133129e-18)
(-2.83292453e-17 3.16992957e-05 -5.35700047e-18)
(-3.14439767e-17 3.518333e-05 -5.94186808e-18)
(-3.44592966e-17 3.85560617e-05 -6.50721379e-18)
(-3.72656877e-17 4.1695022e-05 -7.03261548e-18)
(-3.97510434e-17 4.44748495e-05 -7.49728172e-18)
(-4.18092209e-17 4.67768537e-05 -7.88162594e-18)
(-4.33489787e-17 4.84990089e-05 -8.16888758e-18)
(0 0 0)
(-2.32915906e-19 2.60798089e-07 -4.42864427e-20)
(-4.7291257e-19 5.29520783e-07 -8.99179631e-20)
(-7.32360775e-19 8.20015333e-07 -1.39245194e-19)
(-1.02708872e-18 1.14999945e-06 -1.95275459e-19)
(-1.37386135e-18 1.5382389e-06 -2.61192957e-19)
(-1.79009137e-18 2.00422307e-06 -3.4030309e-19)
(-2.29503353e-18 2.56950106e-06 -4.36258457e-19)
(-2.91077458e-18 3.25878858e-06 -5.53245529e-19)
(-3.66157007e-18 4.09922408e-06 -6.95856528e-19)
(-4.57399304e-18 5.12053338e-06 -8.69114812e-19)
(-5.67706501e-18 6.35517484e-06 -1.07849605e-18)
(-7.00151377e-18 7.83750719e-06 -1.32978243e-18)
(-8.57891325e-18 9.60282648e-06 -1.62889355e-18)
(-1.04401131e-17 1.16856092e-05 -1.98158199e-18)
(-1.26131428e-17 1.4117169e-05 -2.39302925e-18)
(-1.51203995e-17 1.69225142e-05 -2.86730771e-18)
(-1.79752791e-17 2.01165838e-05 -3.40674103e-18)
(-2.11782525e-17 2.3699863e-05 -4.01116643e-18)
(-2.47126164e-17 2.76536371e-05 -4.67714659e-18)
(-2.85403632e-17 3.1935375e-05 -5.39721828e-18)
(-3.25987764e-17 3.64749246e-05 -6.15929492e-18)
(-3.67985178e-17 4.11723739e-05 -6.94636565e-18)
(-4.10240273e-17 4.58984952e-05 -7.73663845e-18)
(-4.51369662e-17 5.04985936e-05 -8.50425061e-18)
(-4.89831382e-17 5.4800243e-05 -9.22060749e-18)
(-5.24027675e-17 5.86247776e-05 -9.85630552e-18)
(-5.52432612e-17 6.18015624e-05 -1.03834619e-17)
(-5.73728157e-17 6.41832096e-05 -1.07781476e-17)
(0 0 0)
(-2.75035093e-19 3.07952665e-07 -5.22935417e-20)
(-5.58586802e-19 6.25436847e-07 -1.06204592e-19)
(-8.66198972e-19 9.69851543e-07 -1.64686347e-19)
(-1.21760743e-18 1.36328824e-06 -2.31487995e-19)
(-1.63337024e-18 1.82875774e-06 -3.10513207e-19)
(-2.13512238e-18 2.39047397e-06 -4.0586742e-19)
(-2.74776937e-18 3.07630832e-06 -5.22273124e-19)
(-3.49978792e-18 3.91812428e-06 -6.65124677e-19)
(-4.4220242e-18 4.95043005e-06 -8.40256553e-19)
(-5.54962121e-18 6.21253353e-06 -1.05430469e-18)
(-6.92160326e-18 7.74807507e-06 -1.31462125e-18)
(-8.57964454e-18 9.60364749e-06 -1.62903219e-18)
(-1.05676534e-17 1.18283306e-05 -2.00574806e-18)
(-1.29295559e-17 1.44712123e-05 -2.45293117e-18)
(-1.57067769e-17 1.7578574e-05 -2.97820514e-18)
(-1.89343584e-17 2.11895536e-05 -3.58790821e-18)
(-2.26364801e-17 2.53311415e-05 -4.28623889e-18)
(-2.68209307e-17 3.00120045e-05 -5.07421516e-18)
(-3.14728391e-17 3.52154807e-05 -5.94851284e-18)
(-3.65483025e-17 4.08924569e-05 -6.90031184e-18)
(-4.19687464e-17 4.69550621e-05 -7.91431377e-18)
(-4.7617181e-17 5.32724776e-05 -8.96815e-18)
(-5.33376505e-17 5.9670316e-05 -1.00324129e-17)
(-5.89391448e-17 6.59349901e-05 -1.10715218e-17)
(-6.42048872e-17 7.18240933e-05 -1.2045554e-17)
(-6.89070938e-17 7.70829028e-05 -1.29130098e-17)
(-7.28260505e-17 8.1465713e-05 -1.36342622e-17)
(-7.57709559e-17 8.47591471e-05 -1.41752148e-17)
(0 0 0)
(-3.22175233e-19 3.6072772e-07 -6.12546304e-20)
(-6.547762e-19 7.33123596e-07 -1.24488965e-19)
(-1.01695879e-18 1.13862958e-06 -1.93341927e-19)
(-1.43270442e-18 1.6040889e-06 -2.72368379e-19)
(-1.9271446e-18 2.15763033e-06 -3.66339083e-19)
(-2.52764027e-18 2.82987473e-06 -4.80444147e-19)
(-3.2658453e-18 3.6562429e-06 -6.20682613e-19)
(-4.1771891e-18 4.67637382e-06 -7.93760508e-19)
(-5.30182622e-18 5.93518436e-06 -1.00726556e-18)
(-6.68623349e-18 7.4846538e-06 -1.269963e-18)
(-8.38083681e-18 9.38116486e-06 -1.59133425e-18)
(-1.04420731e-17 1.16878094e-05 -1.98195329e-18)
(-1.29306967e-17 1.44724935e-05 -2.45314707e-18)
(-1.59083627e-17 1.78041172e-05 -3.01632452e-18)
(-1.94355411e-17 2.17502468e-05 -3.68255643e-18)
(-2.3565596e-17 2.63705006e-05 -4.46143006e-18)
(-2.83393707e-17 3.17105013e-05 -5.3600071e-18)
(-3.3777491e-17 3.77932774e-05 -6.38136914e-18)
(-3.98711847e-17 4.46090027e-05 -7.52291583e-18)
(-4.65726286e-17 5.21042018e-05 -8.77462405e-18)
(-5.37858019e-17 6.01715184e-05 -1.01174679e-17)
(-6.13596435e-17 6.86420549e-05 -1.15223426e-17)
(-6.90854864e-17 7.72824927e-05 -1.29498482e-17)
(-7.67009029e-17 8.57993828e-05 -1.43512852e-17)
(-8.39017839e-17 9.38526476e-05 -1.56711202e-17)
(-9.03633367e-17 0.000101079061 -1.68509436e-17)
(-9.57686234e-17 0.000107124167 -1.78345756e-17)
(-9.98407217e-17 0.000111678254 -1.85735793e-17)
(0 0 0)
(-3.74505308e-19 4.19312391e-07 -7.12016554e-20)
(-7.61702651e-19 8.52829282e-07 -1.44812842e-19)
(-1.18479117e-18 1.32651802e-06 -2.25239812e-19)
(-1.67275581e-18 1.87282165e-06 -3.17986609e-19)
(-2.25640106e-18 2.52621706e-06 -4.28899147e-19)
(-2.96986779e-18 3.32491061e-06 -5.64450923e-19)
(-3.85222708e-18 4.31261933e-06 -7.32042017e-19)
(-4.94788002e-18 5.53901481e-06 -9.40069265e-19)
(-6.30905818e-18 7.06251772e-06 -1.19839234e-18)
(-7.99491938e-18 8.94928163e-06 -1.51814994e-18)
(-1.00722135e-17 1.12739344e-05 -1.91186749e-18)
(-1.26171798e-17 1.41217e-05 -2.39379327e-18)
(-1.57099012e-17 1.75820825e-05 -2.9787958e-18)
(-1.94368184e-17 2.17516846e-05 -3.68279715e-18)
(-2.38858411e-17 2.67287482e-05 -4.52180065e-18)
(-2.9135884e-17 3.26014608e-05 -5.50986065e-18)
(-3.52528677e-17 3.94434966e-05 -6.65828411e-18)
(-4.22787394e-17 4.73017477e-05 -7.97354107e-18)
(-5.02180195e-17 5.61812832e-05 -9.45476269e-18)
(-5.90235835e-17 6.60294455e-05 -1.10911852e-17)
(-6.85820523e-17 7.67195011e-05 -1.28596458e-17)
(-7.87019116e-17 8.80373388e-05 -1.47227373e-17)
(-8.9107078e-17 9.96742581e-05 -1.66281176e-17)
(-9.94393891e-17 0.000111229741 -1.85095463e-17)
(-1.09273518e-16 0.000122228124 -2.02901383e-17)
(-1.1814638e-16 0.00013215149 -2.18879917e-17)
(-1.25599792e-16 0.000140487385 -2.322374e-17)
(-1.31230509e-16 0.00014678478 -2.42288765e-17)
(0 0 0)
(-4.31913711e-19 4.83581691e-07 -8.21132036e-20)
(-8.79139155e-19 9.84299634e-07 -1.67132609e-19)
(-1.36949366e-18 1.53328987e-06 -2.60340622e-19)
(-1.9377927e-18 2.1695205e-06 -3.6834694e-19)
(-2.62136553e-18 2.93476912e-06 -4.98233309e-19)
(-3.46199287e-18 3.87578872e-06 -6.57917977e-19)
(-4.50774788e-18 5.04636435e-06 -8.56499668e-19)
(-5.81457717e-18 6.50907785e-06 -1.10454901e-18)
(-7.44815337e-18 8.33737583e-06 -1.41444685e-18)
(-9.48377651e-18 1.06154541e-05 -1.8003457e-18)
(-1.2009915e-17 1.34422161e-05 -2.27881188e-18)
(-1.51251835e-17 1.69278912e-05 -2.86821327e-18)
(-1.89379411e-17 2.11935874e-05 -3.58858456e-18)
(-2.3568537e-17 2.6373814e-05 -4.46198223e-18)
(-2.91388106e-17 3.26047501e-05 -5.51040894e-18)
(-3.5763812e-17 4.00150009e-05 -6.75414833e-18)
(-4.35467025e-17 4.87199105e-05 -8.2107071e-18)
(-5.25636354e-17 5.88046619e-05 -9.89190378e-18)
(-6.28438092e-17 7.03019706e-05 -1.18001323e-17)
(-7.43498468e-17 8.31701284e-05 -1.39248428e-17)
(-8.69543986e-17 9.7266818e-05 -1.6238549e-17)
(-1.00420535e-16 0.00011232716 -1.86938391e-17)
(-1.14388379e-16 0.00012794874 -2.12218591e-17)
(-1.28373519e-16 0.000143589824 -2.37331875e-17)
(-1.41783717e-16 0.000158588036 -2.61220106e-17)
(-1.53959026e-16 0.000172205244 -2.82740565e-17)
(-1.6423528e-16 0.00018369857 -3.00777485e-17)
(-1.72022645e-16 0.000192408268 -3.14367983e-17)
(0 0 0)
(-4.9407388e-19 5.53169993e-07 -9.39269962e-20)
(-1.00643651e-18 1.12680775e-06 -1.91324383e-19)
(-1.5701183e-18 1.75788357e-06 -2.98463239e-19)
(-2.22655032e-18 2.49276877e-06 -4.2320723e-19)