/*--------------------------------*- C++ -*----------------------------------*\
| =========                 |                                                 |
| \\      /  F ield         | foam-extend: Open Source CFD                    |
|  \\    /   O peration     | Version:     4.1                                |
|   \\  /    A nd           | Web:         http://www.foam-extend.org         |
|    \\/     M anipulation  |                                                 |
\*---------------------------------------------------------------------------*/
FoamFile
{
    version     2.0;
    format      ascii;
    class       volScalarField;
    location    "0.25";
    object      rAU;
}
// * * * * * * * * * * * * * * * * * * * * * * * * * * * * * * * * * * * * * //

dimensions      [0 0 1 0 0 0 0];

internalField   nonuniform List<scalar> 
35840
(
0.000714285766
0.000836637548
0.000924548403
0.000999612519
0.00105386369
0.00109046246
0.00111504471
0.00113178461
0.00114331502
0.00115143532
0.00115735401
0.00116182474
0.00116530796
0.00116809116
0.00117035848
0.0011722314
0.00117379362
0.00117503528
0.00117608371
0.00117698506
0.00117776529
0.00117844671
0.00117904874
0.00117958848
0.00118008099
0.00118053952
0.00118097562
0.00118139918
0.000739083753
0.000819497513
0.000880891913
0.000951172477
0.00101612323
0.00106944464
0.00111046708
0.00114131539
0.00116442427
0.00118185233
0.00119521069
0.00120566015
0.00121399596
0.00122076044
0.00122632791
0.00123096074
0.00123484719
0.00123804847
0.00124076178
0.001242975
0.00124483461
0.0012464747
0.00124793619
0.00124925515
0.00125046344
0.00125158907
0.00125265647
0.00125368661
0.000753175627
0.000833322824
0.000878398385
0.000929314339
0.000978234744
0.00102100095
0.00105596511
0.00108369684
0.00110556728
0.00112290925
0.00113681881
0.00114812847
0.00115744128
0.00116519186
0.0011716979
0.00117719533
0.00118186263
0.00118583797
0.00118923095
0.0011920311
0.00119417627
0.00119606643
0.00119777048
0.00119932579
0.00120076564
0.00120211938
0.00120341261
0.00120466714
0.000760308948
0.000850112821
0.000895623452
0.000941325168
0.000982257974
0.00101676162
0.00104457845
0.00106663437
0.00108423336
0.00109850352
0.00111028478
0.00112016626
0.00112855108
0.00113572013
0.00114187795
0.00114718023
0.00115175001
0.00115568752
0.00115907653
0.00116198846
0.00116400264
0.00116577466
0.00116739611
0.00116889945
0.00117031421
0.00117166672
0.00117297992
0.00117427311
0.000763382464
0.000860199237
0.000909774931
0.00095640191
0.000995499236
0.00102638664
0.00104993816
0.00106782362
0.00108170042
0.00109282711
0.00110204761
0.00110988966
0.00111667155
0.00112258783
0.00112776533
0.00113229488
0.00113624778
0.00113968419
0.00114265719
0.00114511372
0.00114665827
0.00114805381
0.00114935656
0.00115059227
0.00115178519
0.00115295731
0.00115412772
0.00115531216
0.000765073978
0.000866246473
0.000919348309
0.000968015817
0.0010075118
0.00103741668
0.00105912449
0.00107479551
0.00108640732
0.00109539881
0.00110270107
0.00110886961
0.00111421698
0.0011189151
0.00112306104
0.0011267146
0.00112991811
0.00113270633
0.00113511085
0.00113672696
0.00113767714
0.00113857331
0.00113943587
0.00114028583
0.00114114361
0.00114202797
0.00114295511
0.00114393779
0.000766121291
0.000870081036
0.000925796103
0.000976359959
0.00101677983
0.00104669311
0.00106773971
0.00108237083
0.00109278306
0.00110054969
0.0011066763
0.00111175489
0.00111611207
0.00111992102
0.00112327266
0.00112621662
0.00112878342
0.00113099577
0.00113280515
0.00113344093
0.00113384381
0.00113424039
0.00113464987
0.00113509234
0.00113558756
0.00113615369
0.00113680613
0.00113755646
0.000766816438
0.000872663882
0.000930309392
0.000982463418
0.00102385583
0.00105409906
0.00107497065
0.00108911599
0.00109889046
0.00110596745
0.0011114076
0.00111582993
0.00111957246
0.00112281151
0.00112563663
0.00112809344
0.00113020701
0.00113199397
0.00113292583
0.00113287012
0.00113281551
0.00113278214
0.00113279199
0.00113286784
0.001133032
0.00113330486
0.00113370349
0.00113424028
0.000767309792
0.000874503473
0.000933598665
0.000987055372
0.00102935378
0.00106003853
0.00108095973
0.00109489527
0.00110432063
0.00111099078
0.00111601315
0.00112003002
0.00112338899
0.00112626875
0.00112875752
0.00113089762
0.00113270975
0.00113398268
0.00113387988
0.00113345686
0.00113304222
0.0011326614
0.00113234162
0.00113211088
0.00113199653
0.00113202358
0.00113221297
0.00113257983
0.000767677713
0.000875872683
0.000936079774
0.00099060079
0.00103371217
0.00106487435
0.00108596646
0.00109985347
0.00110910022
0.00111552835
0.00112028705
0.00112404125
0.00112714905
0.00112979256
0.00113205947
0.00113398931
0.00113559868
0.00113573279
0.00113504585
0.00113433538
0.00113363065
0.00113296345
0.00113236769
0.00113187835
0.00113152985
0.001131354
0.00113137767
0.00113162041
0.000767962472
0.000876928864
0.000938008712
0.000993404488
0.00103723337
0.00106887179
0.0010902019
0.00110414354
0.00111332612
0.00111962404
0.00112422243
0.00112780772
0.00113074932
0.00113323421
0.0011353509
0.00113713708
0.00113777692
0.00113697346
0.00113605624
0.00113510025
0.00113414109
0.00113321763
0.00113237172
0.00113164705
0.00113108724
0.0011307332
0.00113062006
0.00113077384
0.000768189495
0.00087776779
0.000939547851
0.000995669513
0.00104012731
0.00107222177
0.00109382424
0.00110788763
0.00111708709
0.00112333757
0.00112785399
0.001131342
0.00113418219
0.00113656717
0.00113858719
0.00113955552
0.00113894821
0.00113791851
0.00113679029
0.00113560224
0.00113439649
0.00113321974
0.00113212317
0.00113116121
0.00113038929
0.00112986044
0.00112962112
0.00112970655
0.000768374752
0.000878449973
0.000940802883
0.000997533685
0.00104254242
0.00107506427
0.00109695334
0.00111118145
0.00112045576
0.00112672203
0.00113121921
0.00113466946
0.00113746366
0.00113980006
0.00114114593
0.00114081826
0.0011397848
0.00113857827
0.00113724046
0.00113581504
0.0011343507
0.00113290272
0.00113153315
0.00113030969
0.00112930297
0.00112858224
0.00112820967
0.0011282336
0.000768528644
0.000879015011
0.000941844523
0.000999092372
0.00104458521
0.00107750314
0.00109968096
0.00111410042
0.00112349108
0.00112982199
0.00113435132
0.00113781509
0.00114061328
0.00114241516
0.0011424653
0.00114155818
0.00114038842
0.00113900295
0.00113744605
0.0011357654
0.0011340159
0.00113226193
0.0011305781
0.00112904838
0.00112776303
0.00112681315
0.00112628285
0.00112623952
0.00076865817
0.000879489612
0.000942721209
0.00100041261
0.00104633279
0.00107961588
0.00110207755
0.00111670404
0.00112624066
0.00113267422
0.0011372783
0.00114080056
0.00114319847
0.00114375655
0.00114313147
0.00114213647
0.00114082994
0.00113925814
0.00113746582
0.00113550301
0.00113342983
0.00113131984
0.00112926183
0.00112735951
0.00112572843
0.00112448924
0.00112375708
0.00112362737
0.000768768159
0.000879892231
0.000943466784
0.00100154215
0.00104784142
0.00108146041
0.00110419698
0.00111903874
0.00112874225
0.00113530814
0.00114002257
0.00114326942
0.00114452243
0.00114436766
0.00114370863
0.00114262958
0.00114118493
0.00113941744
0.00113736947
0.00113509079
0.0011326448
0.00113011346
0.00112760083
0.00112523421
0.00112316153
0.00112154354
0.00112053969
0.00112028737
0.000768862017
0.000880235882
0.000944105282
0.00100251535
0.00104915227
0.00108307988
0.00110608003
0.00112114002
0.00113102476
0.00113774599
0.00114229596
0.0011445341
0.00114508897
0.00114495519
0.00114427133
0.0011431149
0.00114153321
0.00113956197
0.00113723727
0.00113460471
0.00113172742
0.00112869347
0.00112562221
0.00112266814
0.00112002018
0.00111789352
0.00111651144
0.00111605662
0.000768942191
0.000880529904
0.000944653993
0.00100335713
0.0010502955
0.00108450618
0.00110775696
0.0011230341
0.00113310906
0.00113975897
0.00114346129
0.0011450586
0.00114568521
0.00114558652
0.00114489264
0.00114367159
0.00114196013
0.00113978251
0.0011371633
0.00113413811
0.001130764
0.00112713024
0.00112336917
0.00111966491
0.00111625707
0.00111343435
0.00111150131
0.00111073828
0.000769010476
0.00088078111
0.0009451255
0.00100408563
0.00105129308
0.0010857625
0.00110924954
0.00112473928
0.00113481546
0.00114079045
0.00114394011
0.00114565098
0.00114636713
0.00114632508
0.00114564465
0.00114438165
0.00114255837
0.00114018238
0.00113726002
0.00113380859
0.00112986975
0.00112552496
0.00112091285
0.00111624633
0.00111182504
0.00110803554
0.00110527213
0.00110406357
0.000769068219
0.000880994565
0.000945529067
0.00100471411
0.00105216094
0.00108686536
0.0011105727
0.00112611389
0.00113568695
0.00114121646
0.00114450924
0.00114635323
0.00114718448
0.00114723008
0.00114659818
0.00114532986
0.00114342894
0.00114088033
0.00113766363
0.00113376658
0.00112920143
0.00112402633
0.00111837189
0.00111247163
0.00110669072
0.00110149268
0.00109755552
0.00109563642
0.000769116464
0.000881174132
0.000945871634
0.00100525231
0.00105291052
0.00108782615
0.001111612
0.00112680943
0.00113605216
0.00114174063
0.00114519576
0.0011471992
0.00114817969
0.00114835503
0.00114782105
0.00114660232
0.0011446806
0.00114201183
0.00113853876
0.00113420493
0.00112897337
0.00112285396
0.00111594226
0.00110847009
0.00110083469
0.00109365142
0.00108796095
0.00108488303
0.00076915606
0.000881322881
0.000946158547
0.00100570751
0.00105355001
0.00108854757
0.001112127
0.00112710741
0.00113651161
0.00114237613
0.00114601765
0.00114821324
0.00114938575
0.00114974485
0.0011493747
0.00114828289
0.00114642667
0.00114372747
0.00114008081
0.00113536821
0.00112947642
0.00112232969
0.00111394193
0.00110449424
0.0010942974
0.00108433787
0.00107596558
0.00107094868
0.000769187745
0.000881443383
0.000946394116
0.00100608537
0.00105399072
0.00108888923
0.00111235479
0.00112748755
0.00113706703
0.00114312718
0.00114698266
0.0011494082
0.0011508232
0.00115143174
0.00115130868
0.00115044642
0.00114877795
0.00114618718
0.00114251366
0.0011375585
0.00113109913
0.00112292142
0.00111288249
0.00110088582
0.00108737407
0.00107340504
0.00106081885
0.00105243784
0.000769212216
0.000881537921
0.000946569704
0.00100630246
0.00105417822
0.00108904871
0.0011126483
0.00112794351
0.00113771231
0.00114398836
0.00114808681
0.00115078298
0.00115249632
0.00115342945
0.00115365272
0.00115314842
0.00115183001
0.00114954636
0.00114607804
0.00114113177
0.00113434165
0.00112528942
0.00111347239
0.00109850875
0.00108069669
0.00106092908
0.00104146487
0.00102687963
0.000769218925
0.000881576547
0.000946636997
0.00100636897
0.00105427705
0.00108925655
0.00111299663
0.00112846275
0.00113843328
0.00114494391
0.00114931302
0.00115232001
0.00115438889
0.00115572662
0.00115640656
0.00115641032
0.00115564296
0.00115393021
0.00115100294
0.00114647313
0.00113980771
0.00113031508
0.00111678194
0.00109868986
0.00107548915
0.00104749471
0.00101681914
0.000990925127
0.000769212788
0.000881571034
0.000946641586
0.0010064209
0.00105440879
0.00108950046
0.00111338453
0.00112902681
0.00113920786
0.00114596754
0.00115063029
0.00115398334
0.00115646041
0.00115828002
0.00115952856
0.00116020106
0.00116021339
0.00115939341
0.00115745292
0.00115393993
0.00114816956
0.00113885004
0.00112454147
0.00110356736
0.00107390428
0.00103426349
0.000986119972
0.000943781093
0.000769210011
0.000881570351
0.000946664023
0.00100649368
0.0010545621
0.00108976545
0.00111379294
0.00112961194
0.00114000662
0.00114702293
0.00115199385
0.00115571803
0.00115864399
0.00116100949
0.00116292548
0.00116441785
0.00116544
0.00116586224
0.00116543743
0.00116373554
0.00115998188
0.00115238696
0.00113931463
0.00111752962
0.00108230446
0.00102819008
0.000954718722
0.000895498966
0.000769210506
0.000881578961
0.000946698463
0.00100657814
0.0010547241
0.00109003441
0.00111419979
0.00113019009
0.00114079415
0.0011480653
0.00115334694
0.00115745178
0.00116084738
0.00116379724
0.00116644749
0.00116887228
0.00117109144
0.00117306658
0.00117467464
0.00117565001
0.0011751372
0.00117180732
0.00116383676
0.00114730057
0.00111513003
0.00105643953
0.000964514757
0.000883248529
0.000739802546
0.000821720613
0.00088428629
0.000955195574
0.00102016083
0.00107303868
0.00111337106
0.00114346797
0.00116588164
0.00118272161
0.00119560885
0.00120569527
0.00121376069
0.00122033131
0.00122576699
0.00123031805
0.00123416314
0.00123743413
0.00124023196
0.00124263647
0.00124471295
0.00124651627
0.00124809354
0.00124948591
0.0012507297
0.00125185721
0.00125289715
0.00125387488
0.000752948146
0.000758100448
0.000763153227
0.000796314608
0.000843041996
0.000894036047
0.00094283205
0.000986192237
0.00102312336
0.00105381379
0.00107904513
0.00109978466
0.00111693002
0.00113121977
0.00114323219
0.00115341059
0.00116209297
0.00116953914
0.00117595237
0.0011814954
0.00118630175
0.00119048361
0.00119413733
0.00119734732
0.0012001886
0.00120272858
0.00120502815
0.00120714236
0.000770705497
0.000770884824
0.000754229939
0.000761611041
0.000782822875
0.000811819619
0.00084366454
0.000875071673
0.000904265276
0.000930422214
0.000953330648
0.000973154189
0.000990227032
0.00100492281
0.00101759362
0.00102854723
0.00103804236
0.00104629294
0.00105347566
0.00105973769
0.00106520344
0.00106997982
0.00107416041
0.00107782852
0.00108105947
0.00108392218
0.00108648024
0.00108879246
0.000779770244
0.000790744055
0.000774250357
0.000776094397
0.000787816094
0.00080526582
0.000825333243
0.00084595986
0.000865985617
0.000884761517
0.000901958283
0.000917476315
0.000931356085
0.000943706104
0.00095466138
0.000964361656
0.00097294004
0.000980518064
0.000987204645
0.000993096939
0.000998281934
0.0010028382
0.00100683753
0.00101034636
0.00101342697
0.00101613832
0.0010185366
0.00102067552
0.000783419566
0.000802128063
0.00079010209
0.00079402861
0.000805253956
0.000819677879
0.000834857448
0.000849622433
0.000863572027
0.000876582309
0.000888616585
0.000899683627
0.000909815724
0.000919053734
0.000927442213
0.00093502841
0.0009418612
0.000947989928
0.000953463623
0.000958330593
0.000962638248
0.000966433149
0.000969761181
0.000972667838
0.000975198495
0.000977398595
0.000979313699
0.000980989363
0.000785372361
0.000808598123
0.000800133663
0.000806889083
0.000819980918
0.000834971261
0.000849342195
0.000862156892
0.000873385156
0.000883275433
0.000892093382
0.000900053538
0.000907305655
0.000913943134
0.000920021054
0.00092557272
0.00093062076
0.000935183613
0.000939279107
0.000942926306
0.00094614633
0.000948962704
0.000951401528
0.000953491569
0.000955264291
0.000956753807
0.000957996696
0.000959031638
0.000786563326
0.000812607038
0.000806643996
0.000815651913
0.000830618441
0.0008469058
0.000861842672
0.00087448971
0.00088492989
0.000893575925
0.000900862895
0.000907150225
0.000912695687
0.000917664944
0.000922156321
0.000926225
0.00092990089
0.000933200451
0.000936134102
0.000938710635
0.000940939787
0.000942833667
0.000944407656
0.000945680938
0.000946676809
0.000947422782
0.000947950456
0.000948295115
0.000787346088
0.000815277512
0.000811109663
0.000821854198
0.000838376134
0.000855903954
0.00087165827
0.000884675295
0.000895083052
0.000903371322
0.000910060476
0.000915589125
0.000920280235
0.00092434875
0.000927927789
0.000931095371
0.000933894985
0.000936349863
0.000938472406
0.000940270195
0.000941749773
0.000942919051
0.000943788927
0.000944374402
0.000944695335
0.000944776874
0.000944649537
0.000944348872
0.000787899981
0.000817168244
0.00081432453
0.000826424351
0.000844224098
0.00086283813
0.000879397925
0.00089291277
0.000903537265
0.000911812131
0.000918313358
0.000923529891
0.000927825412
0.000931445451
0.000934544906
0.00093721649
0.000939512878
0.000941462327
0.000943079189
0.000944370866
0.000945342307
0.000945999096
0.000946349646
0.000946406849
0.00094598917
0.000945310329
0.000944626556
0.000943971774
0.000788312717
0.000818571624
0.000816732081
0.000829904672
0.000848762288
0.000868321635
0.000885633287
0.00089967304
0.000910607184
0.000919012146
0.000925506165
0.000930617059
0.000934739674
0.000938142324
0.000940995427
0.000943401465
0.000945418516
0.000947076966
0.00094839099
0.000949366168
0.000950004635
0.000950308749
0.000949464531
0.000948496945
0.000947252358
0.00094595806
0.000944877867
0.000944046909
0.000788632278
0.000819653481
0.000818596533
0.000832631471
0.000852371663
0.000872754065
0.000890757266
0.00090531974
0.000916607377
0.000925219011
0.000931804135
0.000936921445
0.000940991555
0.000944302038
0.000947036431
0.000949305195
0.000951170272
0.000952662782
0.000953795265
0.000954569955
0.000954104662
0.0009530992
0.000951107126
0.000949185182
0.000947401046
0.000945809144
0.000944460702
0.000943400919
0.000788887389
0.000820513404
0.00082008157
0.000834820765
0.000855303532
0.000876403814
0.000895038267
0.000910107956
0.000921770597
0.000930637092
0.000937378739
0.000942577924
0.000946676221
0.000949977552
0.000952676933
0.000954891832
0.000956687393
0.000958094794
0.00095878458
0.000958010162
0.000956092815
0.000953775191
0.000951467108
0.000949234863
0.000947146554
0.000945270335
0.000943671426
0.000942408201
0.000789095934
0.000821213561
0.000821291755
0.000836615015
0.000857728521
0.000879457302
0.00089866596
0.000914220436
0.00092626614
0.00093541895
0.000942364667
0.000947703306
0.000951893035
0.000955251286
0.000957982814
0.000960211076
0.000962003746
0.000962420406
0.000961465716
0.000959097652
0.000956570123
0.000953954226
0.00095132436
0.000948759578
0.000946343179
0.000944160471
0.000942294791
0.000940822047
0.000789269473
0.000821794253
0.000822295988
0.000838110493
0.000859764993
0.000882046863
0.000901777563
0.000917791355
0.000930219724
0.000939679069
0.000946864452
0.000952388842
0.000956723386
0.000960196469
0.000963020937
0.000965325196
0.000965670301
0.000964382215
0.000962061378
0.000959455213
0.000956639463
0.000953692613
0.000950699742
0.000947754341
0.000944958008
0.000942417727
0.000940240619
0.000938526357
0.000789415743
0.000822282452
0.000823140905
0.000839373631
0.000861496432
0.00088426779
0.0009044737
0.000920920621
0.000933726065
0.000943504378
0.000950956417
0.000956704754
0.000961230713
0.00096487167
0.000967664382
0.000968373386
0.00096700563
0.000964915968
0.000962397694
0.000959529902
0.000956391054
0.000953065832
0.000949650021
0.000946253239
0.000942999081
0.000940022071
0.000937460918
0.00093544799
0.000789540059
0.000822696693
0.000823858805
0.0008404511
0.000862982506
0.000886189363
0.000906828674
0.000923682979
0.000936856659
0.000946960824
0.000954700042
0.000960704185
0.000965462932
0.000968844395
0.000970147633
0.000969193917
0.000967549733
0.000965319989
0.000962588662
0.000959431683
0.000955927218
0.000952163949
0.00094824759
0.000944305232
0.000940486658
0.00093696143
0.000933910583
0.000931512159
0.000789646161
0.000823050004
0.000824472492
0.000841376173
0.000864266281
0.000887862223
0.000908897408
0.000926134099
0.000939664935
0.000950097579
0.000958139175
0.000964425624
0.000968781608
0.000970823534
0.000970753385
0.000969795661
0.000968082984
0.000965710566
0.000962753282
0.000959279373
0.000955362276
0.000951090837
0.000946578401
0.000941969908
0.000937445649
0.000933219575
0.000929529802
0.000926606381
0.000789736733
0.000823351725
0.000824998338
0.000842172855
0.000865379044
0.000889323412
0.000910720249
0.000928314875
0.000942189873
0.000952949814
0.000961304078
0.000967120885
0.000970320767
0.00097143658
0.000971431191
0.000970484538
0.000968716214
0.000966207603
0.000963019125
0.000959205282
0.000954828307
0.000949970832
0.000944748862
0.0009393234
0.000933908817
0.000928774556
0.000924228156
0.000920592352
0.000789813748
0.000823608692
0.000825448284
0.000842858642
0.00086634361
0.000890599918
0.00091232645
0.000930254587
0.000944458595
0.000955540694
0.000963419773
0.000968282521
0.000970938702
0.000972181948
0.00097226677
0.000971358773
0.000969561361
0.000966937409
0.00096352659
0.000959361677
0.000954484094
0.000948960125
0.000942899022
0.000936471778
0.000929927712
0.000923603698
0.00091788075
0.000913281927
0.000789878694
0.000823826026
0.000825831198
0.000843446427
0.000867176657
0.000891711259
0.00091373678
0.000931973273
0.000946488369
0.000957132121
0.000964262218
0.000968888265
0.000971721926
0.000973125102
0.000973339049
0.000972513431
0.000970732397
0.000968035155
0.000964433379
0.000959928061
0.000954526425
0.000948262615
0.000941222559
0.000933573291
0.000925593252
0.000917662524
0.000910363611
0.000904405276
0.000789932739
0.000824007693
0.000826153834
0.000843945871
0.000867890456
0.00089267145
0.000914965526
0.000933427994
0.000947620171
0.000957708294
0.000964830937
0.000969667373
0.000972713702
0.000974321437
0.000974718808
0.000974038847
0.000972343958
0.000969645012
0.000965917589
0.000961118332
0.000955203011
0.000948150511
0.000939995368
0.000930872936
0.000921052106
0.000910990994
0.000901512129
0.000893589334
0.000789976845
0.000824156912
0.00082642154
0.000844364425
0.0008684942
0.000893490514
0.000915902252
0.000934172036
0.000947977856
0.000958214569
0.000965561459
0.000970641722
0.000973944834
0.000975813838
0.000976465485
0.000976016823
0.000974507575
0.000971916996
0.000968177194
0.000963186366
0.000956826791
0.000948989733
0.000939615073
0.000928754738
0.000916561176
0.000903694549
0.000891146919
0.000880300398
0.000790011858
0.000824276452
0.000826638791
0.000844708138
0.000868995021
0.000894025294
0.000916335618
0.000934411123
0.000948401701
0.000958858296
0.000966457611
0.00097181998
0.00097543121
0.000977629035
0.000978621976
0.000978514015
0.000977324209
0.000974999803
0.000971424724
0.000966426608
0.000959789381
0.000951273954
0.000940661333
0.000927739125
0.00091266262
0.000896030695
0.000879054468
0.000863630931
0.000790033683
0.000824368869
0.000826809629
0.000844936111
0.00086924383
0.00089422694
0.000916506949
0.000934742029
0.000948932818
0.000959630148
0.000967510873
0.000973195681
0.000977170573
0.000979772587
0.000981207436
0.000981572147
0.000980871443
0.000979025892
0.000975873023
0.000971164235
0.000964563492
0.000955654068
0.000943904147
0.000928812757
0.000910009946
0.000888100791
0.000864468342
0.000841607812
0.000790032863
0.000824398487
0.000826866593
0.000845005395
0.000869290193
0.000894337979
0.000916745544
0.000935150078
0.000949554087
0.000960510586
0.000968699432
0.00097474531
0.000979139091
0.000982223181
0.000984208307
0.000985194508
0.00098518446
0.000984086202
0.000981704955
0.000977724811
0.000971683206
0.000962944586
0.000950413783
0.000932832737
0.000909751752
0.00088091853
0.000846714797
0.000810059311
0.000790021179
0.000824379038
0.000826844352
0.000845011373
0.000869354258
0.000894495194
0.000917035257
0.000935615163
0.000950240915
0.000961469869
0.000969987733
0.000976426981
0.000981288517
0.000984927234
0.000987568796
0.000989330117
0.000990231022
0.00099019299
0.000989022369
0.000986374646
0.000981695332
0.000973921271
0.000961157537
0.00094184608
0.000914079716
0.000875783036
0.000825413809
0.000769664334
0.000790014906
0.000824367369
0.00082684432
0.000845044451
0.000869448249
0.000894683612
0.000917356575
0.000936112366
0.000950961889
0.000962468732
0.000971326993
0.00097818044
0.000983545006
0.000987795372
0.000991183019
0.000993858153
0.000995882765
0.000997229971
0.000997765233
0.000997201806
0.000994978288
0.000989437628
0.000978359937
0.000959544464
0.000928492596
0.000879164883
0.000807013137
0.000737059552
0.000790013047
0.000824367896
0.000826860765
0.000845095823
0.000869559768
0.000894886427
0.000917687298
0.000936612881
0.000951680039
0.000963459995
0.000972657109
0.000979929095
0.000985810863
0.000990702985
0.000994892431
0.000998578388
0.00100189095
0.00100489848
0.00100760021
0.00100989701
0.00101127425
0.00100978843
0.00100406138
0.000991106683
0.000964760207
0.000914595617
0.000830977516
0.000755917854
0.000754520017
0.000837736643
0.000885276617
0.000937745565
0.000987159897
0.00102955605
0.00106359978
0.00109017062
0.00111086063
0.00112711976
0.00114009145
0.00115061893
0.00115929832
0.00116654987
0.00117267495
0.00117789371
0.00118237054
0.00118623151
0.00118957609
0.00119248495
0.00119502525
0.00119725417
0.0011992214
0.00120097075
0.00120254127
0.00120396796
0.00120528227
0.00120651229
0.000771500964
0.0007735252
0.000758520407
0.000767401175
0.000789780767
0.00081950457
0.000851603099
0.000882849963
0.000911591629
0.000937134989
0.000959373933
0.000978544935
0.0009950249
0.00100920753
0.0010214506
0.00103205963
0.00104128738
0.00104934056
0.0010563887
0.00106257246
0.00106801053
0.00107280486
0.00107704466
0.00108080925
0.00108417015
0.00108719249
0.00108993585
0.00109245486
0.000791453133
0.000787119846
0.000747908151
0.000730791564
0.00072839465
0.000736328836
0.000750599681
0.000768063617
0.000786665185
0.000805110994
0.00082261532
0.000838771078
0.000853430715
0.000866598898
0.000878359679
0.000888832547
0.000898146502
0.000906426207
0.0009137861
0.000920328963
0.000926146568
0.000931321169
0.000935927148
0.000940032535
0.000943700265
0.000946989108
0.000949954312
0.000952647955
0.000801363591
0.000808448949
0.000768049827
0.00074458143
0.000732833955
0.000729875114
0.000733012783
0.000739977673
0.000749196832
0.000759599954
0.000770432393
0.000781183428
0.000791533928
0.000801299868
0.000810387556
0.000818762674
0.000826428224
0.000833408991
0.000839741463
0.000845467756
0.000850632172
0.000855279386
0.000859453628
0.000863198422
0.000866556603
0.000869570406
0.000872281524
0.000874731083
0.00080528117
0.000820722685
0.000784165677
0.000761965292
0.000749419044
0.000743737662
0.000742668732
0.000744519995
0.000748234836
0.00075314857
0.000758790944
0.00076481691
0.000770977431
0.0007770939
0.000783039507
0.000788727337
0.00079410121
0.000799127867
0.000803790749
0.000808085353
0.000812015878
0.000815592861
0.000818831577
0.000821751
0.000824373136
0.000826722564
0.000828826062
0.000830712254
0.000807381893
0.000827652146
0.00079425076
0.000774201982
0.000763069008
0.000757937851
0.000756453621
0.000756992748
0.000758674827
0.000761055598
0.00076388608
0.000767009349
0.000770315618
0.000773717782
0.000777141279
0.000780522203
0.000783807453
0.000786954507
0.000789930717
0.000792712364
0.000795283618
0.00079763553
0.00079976517
0.000801674944
0.000803372054
0.000804868055
0.000806178446
0.000807322227
0.000808665773
0.000831926174
0.000800746693
0.000782416298
0.000772683152
0.000768637014
0.000767824938
0.000768562397
0.000769969902
0.000771651508
0.000773439437
0.000775272198
0.000777131996
0.000779009988
0.000780892485
0.000782759222
0.000784585724
0.000786346156
0.000788015688
0.000789572197
0.000790997325
0.000792277063
0.000793402055
0.000794367743
0.00079517441
0.000795827138
0.000796335662
0.000796714087
0.000809511127
0.000834772002
0.000805190263
0.000788184789
0.000779582809
0.000776503727
0.000776456337
0.000777717889
0.000779395653
0.000781099635
0.000782683331
0.000784118414
0.000785426029
0.000786636399
0.000787771416
0.000788840968
0.000789844546
0.000790774234
0.000791617767
0.000792361132
0.00079299059
0.00079349416
0.000793862725
0.00079409086
0.000794177451
0.000794126107
0.000793945363
0.000793648627
0.000810110993
0.000836787899
0.000808383787
0.000792415418
0.000784735065
0.000782472949
0.000783114126
0.000784911672
0.000786966497
0.000788894753
0.000790562667
0.000791958759
0.00079312284
0.000794103588
0.000794939964
0.000795656921
0.000796266653
0.000796771459
0.000797166871
0.000797444489
0.000797594319
0.00079760665
0.000797473583
0.000797190291
0.000796756053
0.000796175053
0.000795456879
0.000794616689
0.000810558586
0.000838284284
0.000810772086
0.000795626835
0.000788708631
0.000787145341
0.000788399328
0.000790701054
0.00079314364
0.000795347902
0.000797191254
0.000798676194
0.000799856765
0.000800794464
0.000801538983
0.000802123843
0.000802567801
0.0008028779
0.000803052836
0.000803086026
0.000802968213
0.000802689647
0.000802241944
0.000801619728
0.000800822037
0.000799853494
0.000798725146
0.000797454847
0.00081090513
0.000839437502
0.000812619705
0.000798137171
0.000791854819
0.000790893879
0.00079269516
0.000795466935
0.000798291449
0.000800789945
0.000802847359
0.000804477247
0.000805745566
0.000806724707
0.000807473293
0.000808031559
0.000808422814
0.000808656731
0.000808732956
0.000808644482
0.000808380573
0.000807929301
0.000807279811
0.000806424392
0.000805278799
0.000803558428
0.000801839242
0.000800150865
0.000811181565
0.000840353619
0.000814090098
0.000800149312
0.000794401938
0.000793962693
0.000796253282
0.000799461325
0.00080265661
0.000805457286
0.000807751937
0.000809561724
0.000810961786
0.000812033444
0.000812842912
0.000813436153
0.000813840209
0.000814066515
0.000814114667
0.000813976013
0.000813636895
0.000813081527
0.000811334191
0.000809484035
0.000807479263
0.000805059789
0.000802825467
0.000800820654
0.000811407263
0.000841098909
0.000815287408
0.000801796222
0.000796503187
0.000796518198
0.000799246898
0.000802858502
0.000806410191
0.00080951499
0.000812062272
0.000814077877
0.00081564355
0.000816847523
0.000817762117
0.000818437975
0.000818905058
0.000819175815
0.000819248943
0.000819072595
0.000817469576
0.000815697112
0.000812810302
0.000809941328
0.000807152618
0.000804503362
0.000802053029
0.000799858445
0.000811594814
0.000841716396
0.000816280099
0.000803167212
0.000798263722
0.000798676675
0.000801798698
0.000805783095
0.000809675204
0.000813082077
0.000815892083
0.000818133669
0.000819893201
0.000821264111
0.000822323516
0.000823125706
0.000823702721
0.000824067198
0.000823166937
0.000821651861
0.000818710684
0.000815648929
0.000812523904
0.000809398058
0.000806339491
0.000803420995
0.000800717544
0.000798302245
0.000811752681
0.000842234921
0.000817114414
0.000804323576
0.000799757049
0.000800520768
0.000803997104
0.000808325952
0.000812542055
0.000816246391
0.000819325448
0.000821809024
0.000823786702
0.000825355965
0.000826597777
0.00082756928
0.000827874915
0.000826929501
0.000824636845
0.000821731179
0.000818602448
0.000815306945
0.000811907338
0.000808474946
0.00080509063
0.000801843854
0.000798829515
0.000796142402
0.000811886701
0.000842674325
0.000817822328
0.000805308199
0.000801035343
0.000802109947
0.000805906527
0.000810553939
0.000815077736
0.000819073271
0.000822424963
0.000825163265
0.000827380294
0.000829177012
0.000830637678
0.000830803295
0.00082982922
0.000827479795
0.000824747855
0.00082168394