/*--------------------------------*- C++ -*----------------------------------*\
| =========                 |                                                 |
| \\      /  F ield         | foam-extend: Open Source CFD                    |
|  \\    /   O peration     | Version:     4.1                                |
|   \\  /    A nd           | Web:         http://www.foam-extend.org         |
|    \\/     M anipulation  |                                                 |
\*---------------------------------------------------------------------------*/
FoamFile
{
    version     2.0;
    format      ascii;
    class       volVectorField;
    location    "0.25";
    object      U;
}
// * * * * * * * * * * * * * * * * * * * * * * * * * * * * * * * * * * * * * //

dimensions      [0 1 -1 0 0 0 0];

internalField   nonuniform List<vector> 
35840
(
(3.94086042 0.268528576 0.261844305)
(3.20795405 0.371831566 0.357379709)
(2.43829734 0.266506648 0.249860708)
(1.72034989 0.15694436 0.141978778)
(1.29367238 0.0888159123 0.0772236905)
(1.05218793 0.0517233655 0.0439398709)
(0.89343287 0.031203089 0.0270980198)
(0.785225573 0.0189908538 0.0180828445)
(0.711706408 0.0115184439 0.0131457812)
(0.660061173 0.00694224778 0.0104234479)
(0.622084257 0.00408665635 0.00881536434)
(0.593110388 0.0022532776 0.00773682323)
(0.570355425 0.00105188512 0.00691648749)
(0.552063042 0.000254912203 0.00623249922)
(0.537099468 -0.000276909428 0.00563014275)
(0.524708684 -0.000629808531 0.00508583379)
(0.514360847 -0.000857662402 0.00458949706)
(0.505662402 -0.000995623835 0.00413567405)
(0.498314829 -0.00106701829 0.00372055867)
(0.492076918 -0.00108677758 0.0033409698)
(0.486748499 -0.00106504735 0.00299388489)
(0.482159523 -0.00100933545 0.00267659363)
(0.478162768 -0.00092557621 0.00238684279)
(0.474629252 -0.000818723626 0.00212283211)
(0.471445178 -0.000693231962 0.00188319097)
(0.468510072 -0.000553383038 0.00166693197)
(0.465735746 -0.00040345305 0.00147337903)
(0.463045853 -0.000247744255 0.00130207976)
(4.5212497 0.409953257 0.331399998)
(4.20224639 0.638136702 0.509000347)
(3.63676379 0.543495612 0.40727488)
(2.94289524 0.391289136 0.26150574)
(2.41565284 0.267500969 0.152219343)
(2.06113193 0.181541674 0.0859715271)
(1.808606 0.124032948 0.0502569262)
(1.62434787 0.0850661711 0.0317485734)
(1.49028854 0.0584606431 0.0220776969)
(1.39086635 0.040320248 0.0169217342)
(1.31484328 0.0278701727 0.0140050912)
(1.25519385 0.0191996485 0.0121485532)
(1.20742008 0.0130619073 0.0108034507)
(1.16849225 0.00864681814 0.00972988389)
(1.13633268 0.0054240582 0.0088190743)
(1.10948862 0.00304679535 0.00801884699)
(1.08690896 0.00128750405 0.00730248246)
(1.06780693 -5.59073207e-06 0.00665444514)
(1.05156542 -0.000935473879 0.00606377335)
(1.03768956 -0.00157317345 0.00552147683)
(1.02577382 -0.00196933364 0.00502005275)
(1.01547647 -0.00216142174 0.00455359356)
(1.00650241 -0.002178697 0.0041176815)
(0.998593718 -0.00204552066 0.00370910957)
(0.991522903 -0.00178355247 0.00332571907)
(0.985088497 -0.00141322992 0.00296627482)
(0.979112445 -0.000954670521 0.00263032515)
(0.973438754 -0.00042809677 0.00231803063)
(4.44213363 0.221361248 0.337952099)
(4.08278444 0.436515547 0.51881946)
(3.65713792 0.463114681 0.418089743)
(3.13712477 0.408851521 0.275889644)
(2.71978748 0.331883364 0.166458803)
(2.42182832 0.257589833 0.0961061095)
(2.19811464 0.195655932 0.0564768721)
(2.02637683 0.147027988 0.0358964212)
(1.89488754 0.10976651 0.0253584511)
(1.79248979 0.081615336 0.0198216187)
(1.71063256 0.0605005689 0.0166911253)
(1.64389055 0.0446707511 0.0146526451)
(1.5887183 0.0327492049 0.0131081523)
(1.54261119 0.0237002196 0.0118188049)
(1.50374987 0.0167679997 0.0106924448)
(1.47078744 0.0114149603 0.00969075553)
(1.44269543 0.00726484887 0.00879472881)
(1.41866426 0.00405585269 0.00799119974)
(1.39803945 0.00160501637 0.0072680098)
(1.38028159 -0.000217708205 0.00661330101)
(1.3649322 -0.00150670108 0.00601594578)
(1.35159927 -0.00233295036 0.00546614165)
(1.33994039 -0.00275234987 0.00495585715)
(1.32965257 -0.00281193079 0.00447886328)
(1.32046546 -0.00255418946 0.00403060908)
(1.31213699 -0.00201997876 0.0036080575)
(1.30445072 -0.00125034103 0.00320948218)
(1.29721456 -0.000287488633 0.00283422494)
(4.41370729 0.123369662 0.337929366)
(3.9752716 0.28599483 0.516843812)
(3.52614198 0.346940303 0.410945518)
(3.04826481 0.341759126 0.267056728)
(2.6965028 0.304721542 0.158689022)
(2.46049521 0.256410163 0.0893128807)
(2.28810755 0.208518084 0.0503502303)
(2.15602149 0.166228068 0.030650046)
(2.05358654 0.130819386 0.0211787099)
(1.97173456 0.101971041 0.016685651)
(1.90397818 0.0788343465 0.0144690149)
(1.84662176 0.0604330319 0.0131713927)
(1.79750367 0.0458400544 0.0121833556)
(1.75516894 0.0342555154 0.0112850842)
(1.71855466 0.025030847 0.0104198415)
(1.68683985 0.0176638669 0.00958537528)
(1.65935296 0.0117783766 0.00879262843)
(1.63552219 0.00709854379 0.00805103771)
(1.61485041 0.0034242116 0.00736438222)
(1.59690021 0.00061016999 0.0067313127)
(1.58128226 -0.0014506402 0.00614719739)
(1.56764728 -0.00283992744 0.00560624744)
(1.55567929 -0.00362307174 0.00510244888)
(1.54509051 -0.00385641669 0.00463033919)
(1.53561782 -0.00359275903 0.00418545496)
(1.52702076 -0.00288514774 0.00376450036)
(1.51908054 -0.00178933678 0.00336534564)
(1.51160004 -0.0003650868 0.00298691819)
(4.40562817 0.0838874921 0.338530498)
(3.92709275 0.205873167 0.51866792)
(3.43458025 0.264637374 0.409526501)
(2.94273398 0.274640589 0.261034575)
(2.6054244 0.257666187 0.150312072)
(2.39687283 0.227959855 0.080600732)
(2.25545665 0.194196688 0.0421481347)
(2.15329059 0.161456985 0.0232707123)
(2.07740058 0.132022043 0.0147419479)
(2.01794009 0.106542629 0.0111890689)
(1.96850522 0.0849478996 0.0098477132)
(1.92584519 0.0668773891 0.00933353042)
(1.88837613 0.0518690894 0.00902124451)
(1.85523278 0.0394543239 0.00868669202)
(1.82588364 0.029207629 0.00828081538)
(1.79995154 0.0207689536 0.00781559365)
(1.77711799 0.0138482742 0.0073179013)
(1.7570832 0.00822019508 0.00681236424)
(1.7395555 0.00371383858 0.00631606329)
(1.72424994 0.000201468643 0.00583845738)
(1.71089125 -0.00241317482 0.00538348388)
(1.69921343 -0.00420458604 0.00495192862)
(1.68896128 -0.0052337272 0.00454254454)
(1.67989094 -0.00555522635 0.0041532061)
(1.67177063 -0.00522312306 0.00378171875)
(1.66438183 -0.00429513738 0.00342626415)
(1.65752087 -0.00283555723 0.00308561896)
(1.65100096 -0.000916761183 0.00275922849)
(4.40178167 0.0613579751 0.339164931)
(3.90241662 0.15322448 0.52051409)
(3.38074054 0.204410519 0.410099321)
(2.8692114 0.22107953 0.258748528)
(2.5275007 0.215744214 0.145980062)
(2.3247651 0.198074912 0.0755300614)
(2.19488289 0.174622574 0.0370224407)
(2.10722583 0.149769523 0.018340215)
(2.04671695 0.125953589 0.0101168329)
(2.00215491 0.104242356 0.00691338576)
(1.9664508 0.0849805709 0.00592983947)
(1.93606387 0.06817154 0.00577170247)
(1.90934711 0.0536590933 0.00580764489)
(1.8855107 0.0412217471 0.0058046803)
(1.86417327 0.0306255433 0.00570626375)
(1.84513588 0.0216526699 0.00552042788)
(1.82825736 0.014115043 0.00527312305)
(1.81339907 0.00785864963 0.00499015866)
(1.80040782 0.00276233983 0.00469111886)
(1.78911276 -0.00126685174 0.00438853472)
(1.77933139 -0.00430022048 0.00408977874)
(1.77086939 -0.00639363078 0.00379868694)
(1.76352687 -0.00759455763 0.00351661009)
(1.75710129 -0.00794860263 0.00324355691)
(1.75139091 -0.00750508589 0.00297898776)
(1.74619843 -0.0063215791 0.00272228072)
(1.74133483 -0.00446715047 0.00247300455)
(1.73662357 -0.00202408363 0.00223106568)
(4.39956816 0.0466871083 0.339653841)
(3.88830265 0.117720628 0.521954379)
(3.34831415 0.161236026 0.411270045)
(2.82102727 0.180135098 0.258566688)
(2.47120668 0.18140117 0.144564101)
(2.26666286 0.171509485 0.073501519)
(2.13922167 0.15540242 0.0347881974)
(2.05689969 0.136648297 0.0160500876)
(2.00341413 0.117489601 0.00782590179)
(1.9666316 0.0991336407 0.00464334051)
(1.93887965 0.0821551422 0.00368838719)
(1.91626337 0.0667820549 0.00357027937)
(1.89692081 0.0530571859 0.00366474795)
(1.87994748 0.0409294101 0.00373966153)
(1.86492056 0.030306365 0.00373469184)
(1.85164817 0.021084596 0.00365291995)
(1.84002479 0.0131662219 0.00351570356)
(1.82996148 0.00646731349 0.00334512165)
(1.82135861 0.000920948449 0.00315803173)
(1.81409763 -0.00352397963 0.00296538001)
(1.80804082 -0.00690562777 0.00277381089)
(1.80303167 -0.0092534505 0.00258672977)
(1.79889943 -0.0105943842 0.00240538071)
(1.79546241 -0.0109587691 0.00222984272)
(1.79253224 -0.0103859506 0.00205966626)
(1.78991871 -0.00892921221 0.0018942476)
(1.78743523 -0.00665949747 0.00173305169)
(1.78490498 -0.00366740864 0.00157574232)
(4.39821721 0.0366462471 0.340043499)
(3.87961487 0.0929751497 0.523110638)
(3.32761957 0.129550224 0.412496959)
(2.78860428 0.148160675 0.259134333)
(2.43112839 0.152906813 0.144409512)
(2.22288077 0.148065351 0.0729520184)
(2.0946203 0.137243355 0.03410445)
(2.01359992 0.123216721 0.0153202797)
(1.96284416 0.107893223 0.00705995518)
(1.92964893 0.0924532046 0.003830512)
(1.90596178 0.0775751091 0.00281413642)
(1.88764223 0.0636233157 0.00262813707)
(1.87266102 0.050775284 0.00266045022)
(1.86000046 0.0391021453 0.00268710599)
(1.84916638 0.0286179545 0.00265076687)
(1.83992732 0.0193095369 0.00255439419)
(1.83216098 0.0111545464 0.00241770626)
(1.82577697 0.00413196462 0.00226049462)
(1.82068273 -0.00177283299 0.00209723168)
(1.81677239 -0.00656703376 0.00193700686)
(1.81391859 -0.0102511663 0.00178488517)
(1.81197424 -0.0128230328 0.00164288142)
(1.81077343 -0.0142831669 0.00151119787)
(1.81013418 -0.0146407946 0.00138910862)
(1.80986254 -0.0139200422 0.00127547843)
(1.80975808 -0.0121657193 0.00116906293)
(1.80962075 -0.00944788224 0.00106865261)
(1.80925891 -0.00586438623 0.000973158659)
(4.39732342 0.0293713737 0.340350287)
(3.87389287 0.0747937548 0.524006919)
(3.31373664 0.105402054 0.413537733)
(2.76610123 0.122598668 0.259834554)
(2.40220356 0.128958125 0.144690168)
(2.19004649 0.127292257 0.0729990619)
(2.05987512 0.120175693 0.0340853726)
(1.97849783 0.109716645 0.0152911663)
(1.92850393 0.0974704217 0.00701804405)
(1.89681017 0.0844996337 0.00375745286)
(1.87509968 0.071493429 0.00268897703)
(1.85905882 0.0588807018 0.00243518094)
(1.84654121 0.0469208553 0.00239360657)
(1.83644852 0.0357686209 0.0023486372)
(1.82823209 0.0255164269 0.00224797533)
(1.82162543 0.0162217095 0.00209701397)
(1.81648555 0.00792475155 0.00191628402)
(1.81271112 0.000659977339 0.00172538176)
(1.81020562 -0.00553813431 0.00153820674)
(1.80886041 -0.0106322144 0.001363224)
(1.80854663 -0.014582496 0.00120460954)
(1.80911285 -0.0173506913 0.00106359667)
(1.81038444 -0.0189053521 0.000939754812)
(1.81216533 -0.019228635 0.000831798502)
(1.81424181 -0.0183238973 0.000738059171)
(1.8163887 -0.016223053 0.000656763306)
(1.81837775 -0.0129925392 0.000586097079)
(1.81998804 -0.00873686711 0.000524236977)
(4.39669882 0.0238566436 0.340587787)
(3.86993397 0.0608966181 0.524693531)
(3.30405004 0.0864843122 0.414372519)
(2.75003033 0.101826126 0.260486607)
(2.38091949 0.108652748 0.145090186)
(2.16514667 0.108839287 0.07325366)
(2.03275902 0.104210256 0.0343014216)
(1.9503264 0.0963449521 0.0155082243)
(1.90016387 0.0864780506 0.00723517146)
(1.8689292 0.0755186522 0.00396136304)
(1.84811198 0.0641099076 0.00286333071)
(1.83326512 0.0526925212 0.00256576588)
(1.82215105 0.0415651854 0.00247178001)
(1.81360973 0.0309333202 0.00237137656)
(1.80705177 0.0209432438 0.00221619233)
(1.80218513 0.0117055464 0.002013973)
(1.79885229 0.00331142679 0.0017865356)
(1.79694449 -0.00415648828 0.0015540802)
(1.79636207 -0.0106175298 0.00133095504)
(1.79699391 -0.0159897006 0.00112571287)
(1.79870755 -0.0201905088 0.000942389244)
(1.8013436 -0.0231407822 0.000782143032)
(1.80471329 -0.0247709332 0.000644540863)
(1.80859907 -0.0250293232 0.000528319319)
(1.81275796 -0.0238919742 0.000431709592)
(1.8169283 -0.021372458 0.000352680548)
(1.82084 -0.0175303832 0.000289154742)
(1.82422829 -0.0124768671 0.000239075503)
(4.396246 0.019532206 0.340770993)
(3.86708842 0.0499390022 0.52522132)
(3.29705671 0.0712996418 0.415031931)
(2.73823367 0.0846693676 0.261041996)
(2.36492998 0.0912836372 0.145485435)
(2.14597718 0.092423181 0.0735526023)
(2.01138255 0.0893815287 0.0345731284)
(1.92760706 0.0833312045 0.0157806291)
(1.87680347 0.0752352764 0.00750932479)
(1.84545925 0.0658468661 0.00422933343)
(1.82492634 0.0557359106 0.00311465124)
(1.81065531 0.0453219148 0.00279075954)
(1.80033518 0.0349122424 0.00266377026)
(1.79275538 0.0247372467 0.0025269281)
(1.78729354 0.014976751 0.00233423397)
(1.78363808 0.00577927853 0.00209488284)
(1.78162162 -0.00272382814 0.00183151194)
(1.78113254 -0.0104082504 0.00156498675)
(1.78207144 -0.0171498649 0.00131015615)
(1.78432832 -0.0228219074 0.0010757077)
(1.78776887 -0.0272959459 0.000865885454)
(1.79222606 -0.0304461626 0.000682166997)
(1.79749537 -0.0321571254 0.000524359031)
(1.80333307 -0.0323345917 0.000391369686)
(1.80945866 -0.0309184593 0.000281691371)
(1.81556224 -0.0278965543 0.000193598776)
(1.8213173 -0.0233172251 0.000125221801)
(1.82639873 -0.0172981739 7.45235413e-05)
(4.39590712 0.0160493052 0.340912729)
(3.86497418 0.0410770711 0.525629901)
(3.29184951 0.0588541212 0.415551271)
(2.72934385 0.0702941166 0.261498393)
(2.35266023 0.0763160231 0.145835186)
(2.13096704 0.0778152247 0.0738363373)
(1.99430079 0.0757127513 0.0348361227)
(1.90908906 0.0708747133 0.016041709)
(1.85739756 0.0640432776 0.00776976879)
(1.82560812 0.0558286784 0.00448447093)
(1.8049803 0.0467185632 0.00335813508)
(1.79089073 0.0370928939 0.00301667098)
(1.78097232 0.0272474345 0.00286791943)
(1.77397483 0.0174185784 0.00270695389)
(1.76925021 0.0078035461 0.00248903769)
(1.76647259 -0.00142415785 0.00222402898)
(1.76546944 -0.0101024594 0.00193505655)
(1.76613079 -0.0180710646 0.00164343752)
(1.76836255 -0.0251649865 0.00136408734)
(1.77206002 -0.0312118741 0.00110579921)
(1.77709078 -0.0360329805 0.000873000536)
(1.78328254 -0.0394483486 0.000667420294)
(1.79041462 -0.0412864852 0.000489203746)
(1.79821322 -0.0413984349 0.000337710289)
(1.80635194 -0.0396755142 0.000211922991)
(1.81445917 -0.0360689858 0.000110611691)
(1.82213362 -0.0306089408 3.23457925e-05)
(1.82896824 -0.0234186489 -2.45997221e-05)
(4.39564615 0.0131852066 0.341023246)
(3.86335591 0.0337665273 0.525949678)
(3.28786006 0.0484829684 0.415962803)
(2.72247113 0.058108966 0.261869833)
(2.34303597 0.0633418522 0.146132638)
(2.1189922 0.0648182192 0.0740872154)
(1.98042983 0.0631972721 0.0350708425)
(1.89378285 0.0591167421 0.0162726558)
(1.84107745 0.0531427963 0.00799777299)
(1.80863465 0.0457610162 0.00470660104)
(1.78765621 0.0373773549 0.00357045249)
(1.77346943 0.0283233747 0.00321558178)
(1.76366807 0.0188705136 0.00305093996)
(1.75697401 0.00924775478 0.00287265635)
(1.75272205 -0.00034297795 0.00263658461)
(1.75057887 -0.00971402787 0.0023529703)
(1.75037348 -0.0186807453 0.00204526524)
(1.75200407 -0.0270522567 0.00173474475)
(1.75538836 -0.0346250181 0.00143617358)
(1.76043374 -0.0411795345 0.00115834146)
(1.76701611 -0.0464811678 0.000905788735)
(1.77496284 -0.0502860608 0.000680456265)
(1.78403903 -0.0523530055 0.000482836485)
(1.79393804 -0.0524616847 0.000312775039)
(1.80427837 -0.050436831 0.000169845359)
(1.81461 -0.0461764647 5.34999198e-05)
(1.82443268 -0.0396805767 -3.69763475e-05)
(1.83322753 -0.0310747174 -0.000102677459)
(4.39543983 0.0107928508 0.341110528)
(3.86208273 0.0276452082 0.526203653)
(3.28471963 0.0397308912 0.416292803)
(2.71702206 0.0476883182 0.262173028)
(2.3353138 0.0520470839 0.14638244)
(2.10924437 0.0532623957 0.0743032413)
(1.9689605 0.0518070284 0.0352743313)
(1.88092089 0.0481485135 0.0164717709)
(1.82714056 0.0427138509 0.00819280603)
(1.79390933 0.0358823677 0.00489550571)
(1.77239622 0.027983394 0.00375062045)
(1.75789885 0.0192967884 0.00338471392)
(1.74798697 0.0100618789 0.00320748948)
(1.7413662 0.000490371062 0.00301565308)
(1.73736354 -0.00922137171 0.00276546355)
(1.7356472 -0.0188807818 0.00246750786)
(1.73605635 -0.0282883543 0.0021451374)
(1.7385061 -0.0372282376 0.00181928033)
(1.74293576 -0.045460642 0.00150450483)
(1.74927552 -0.0527171913 0.00120950459)
(1.75742022 -0.0587007331 0.000938837904)
(1.76720612 -0.0630913045 0.000694595155)
(1.77839 -0.0655599618 0.000477574678)
(1.79063217 -0.065791868 0.000288111649)
(1.80348698 -0.0635189009 0.000126495621)
(1.81640571 -0.0585601383 -6.89356738e-06)
(1.82875694 -0.0508656334 -0.000111706577)
(1.83986789 -0.0405553675 -0.000187997463)
(4.39527262 0.00877223702 0.341180666)
(3.86105458 0.022465306 0.526408979)
(3.28218201 0.0322796059 0.416561588)
(2.71259242 0.038723221 0.262423016)
(2.32897277 0.0421913186 0.146592433)
(2.10113898 0.0430060861 0.0744880879)
(1.95928887 0.0415046935 0.035449549)
(1.86991226 0.0380267771 0.0166428355)
(1.81502856 0.0328890969 0.00835958024)
(1.78091508 0.0263810727 0.00505641367)
(1.75872518 0.0187619083 0.00390380308)
(1.74374158 0.0102592782 0.00352856474)
(1.7335223 0.00107528866 0.00334087565)
(1.72676694 -0.00860342832 0.00313792895)
(1.72280472 -0.0185947133 0.00287645886)
(1.72131513 -0.0287099246 0.00256697952)
(1.72215732 -0.0387429946 0.00223236793)
(1.72527499 -0.0484595399 0.00189319669)
(1.73064271 -0.0575868949 0.0015637799)
(1.73822882 -0.0658067252 0.00125262137)
(1.7479636 -0.0727522573 0.000964162377)
(1.75970814 -0.0780127621 0.000700515633)
(1.77322334 -0.0811483196 0.000462724628)
(1.78814154 -0.0817178512 0.000251635418)
(1.80394582 -0.0793222765 6.83996272e-05)
(1.81996507 -0.0736621079 -8.53518322e-05)
(1.83539402 -0.064604245 -0.00020768469)
(1.8493461 -0.0522464675 -0.00029695725)
(4.39513392 0.00705368937 0.341238237)
(3.86020347 0.0180533715 0.526578354)
(3.28007909 0.0259028087 0.416784515)
(2.70890207 0.0309876739 0.262632113)
(2.32364371 0.0335913426 0.146770481)
(2.09425102 0.03393427 0.0746468981)
(1.95096425 0.0322523747 0.0356010037)
(1.86030433 0.0287877376 0.0167907213)
(1.80430258 0.0237689438 0.0085034768)
(1.76923461 0.0174090371 0.00519501498)
(1.7462491 0.00990339248 0.00403566531)
(1.73062389 0.00142789974 0.00365239276)
(1.71991428 -0.00785654968 0.00345588138)
(1.71282302 -0.0177948763 0.00324401727)
(1.70869056 -0.0282275001 0.00297356307)
(1.70721673 -0.0389793923 0.00265451724)
(1.70829206 -0.0498477045 0.00230930122)
(1.7119029 -0.0605880513 0.00195813897)
(1.71807649 -0.0709007056 0.00161496241)
(1.72684051 -0.0804184188 0.00128789901)
(1.73818494 -0.0886985355 0.000981110588)
(1.75202112 -0.0952232193 0.000696574667)
(1.76813701 -0.0994126763 0.000435449599)
(1.7861515 -0.100656933 0.00019906753)
(1.8054749 -0.0983710862 -1.03994242e-05)
(1.82528801 -0.0920760115 -0.000189624382)
(1.84455554 -0.0814998321 -0.000334282021)
(1.86209104 -0.0666849196 -0.000439976082)
(4.39501635 0.00558764123 0.34128664)
(3.85948237 0.0142855888 0.526721121)
(3.27829419 0.0204370666 0.416973028)
(2.7057545 0.0243149976 0.262809933)
(2.31906317 0.026107946 0.146923338)
(2.0882709 0.0259558674 0.074784603)
(1.94365122 0.0240169555 0.035733084)
(1.851753 0.0204573908 0.0169198982)
(1.79462177 0.0154341325 0.00862915048)
(1.75853681 0.00909460459 0.00531600922)
(1.73464801 0.00157551756 0.00415069306)
(1.71823416 -0.00699882926 0.00376050007)
(1.70685448 -0.0165119811 0.00355699082)
(1.6992215 -0.0268468065 0.00333824257)
(1.69469343 -0.0378756814 0.00306054462)
(1.69299918 -0.0494486056 0.00273343622)
(1.69407217 -0.0613783127 0.00237897679)
(1.69795718 -0.0734226836 0.00201687969)
(1.70475543 -0.085265204 0.00166050321)
(1.71458164 -0.0964952624 0.00131740944)
(1.72751962 -0.106591439 0.000991252646)
(1.74356974 -0.11491283 0.000683630658)
(1.76258597 -0.120705799 0.000395588672)
(1.78420473 -0.123135657 0.000128825259)
(1.80777461 -0.121353629 -0.000113332763)
(1.83230448 -0.114607083 -0.000325272849)
(1.85645693 -0.10239214 -0.000499059)
(1.87862016 -0.0846316865 -0.000625904577)
(4.39491472 0.00433813248 0.341328366)
(3.85885841 0.011071897 0.526844088)
(3.27674569 0.0157624998 0.417135541)
(2.70301109 0.0185811029 0.262963745)
(2.31504297 0.0196354147 0.147056394)
(2.08297409 0.0190001966 0.0749053513)
(1.93710253 0.01677243 0.035849489)
(1.84400045 0.0130579675 0.0170339841)
(1.78572667 0.00795454997 0.00874015656)
(1.74856522 0.00155214879 0.0054227197)
(1.723669 -0.00606745876 0.00425210281)
(1.70632099 -0.0148311823 0.00385652083)
(1.69408759 -0.024670296 0.0036478168)
(1.68569383 -0.0355130267 0.00342369956)
(1.68052005 -0.0472745969 0.00314012418)
(1.67833097 -0.0598437931 0.00280632322)
(1.67911352 -0.0730653037 0.00244382911)
(1.68298729 -0.0867171705 0.00207168675)
(1.69015182 -0.100483575 0.00170249833)
(1.70084353 -0.113924292 0.00134302355)
(1.71528624 -0.126443954 0.000996108668)
(1.73362627 -0.137267303 0.000662620681)
(1.75584666 -0.14543066 0.000343130803)
(1.78166008 -0.149804719 3.94445591e-05)
(1.81038944 -0.149167935 -0.000243889056)
(1.84085967 -0.142350641 -0.000498254297)
(1.87134221 -0.128460473 -0.00071044286)
(1.89961904 -0.107178224 -0.000864435452)
(4.39482541 0.00327850336 0.34136521)
(3.85830867 0.00834539594 0.526952148)
(3.2753766 0.0117895151 0.417278138)
(2.70057464 0.0136922887 0.263098903)
(2.31145003 0.0140929284 0.147173742)
(2.07820023 0.013012849 0.0750123747)
(1.93113987 0.0104999022 0.0359530678)
(1.83685908 0.0066111166 0.0171356101)
(1.77742658 0.00139419389 0.00883880664)
(1.73912911 -0.0051123098 0.00551735769)
(1.71312233 -0.0128780234 0.0043427279)
(1.69469318 -0.0218808153 0.00394333451)
(1.68141391 -0.0321039216 0.00373066369)
(1.67202163 -0.0435292505 0.0035023139)
(1.66591965 -0.0561271656 0.00321408866)
(1.66291177 -0.0698421256 0.0028747825)
(1.66304612 -0.0845722882 0.00250527149)
(1.66653193 -0.100141525 0.00212377638)
(1.67369298 -0.1162629 0.00174194155)
(1.68492818 -0.132493638 0.00136544501)
(1.70066106 -0.14818386 0.000995950309)
(1.72126439 -0.162425406 0.000633136893)
(1.74694846 -0.174013514 0.000276610824)
(1.77760613 -0.181443289 -7.20967513e-05)
(1.81261845 -0.182973685 -0.000407150448)
(1.85064753 -0.17680122 -0.000716059368)
(1.88947468 -0.161381924 -0.000977810153)
(1.92601697 -0.135918474 -0.00116420974)
(4.39474591 0.00238842361 0.341398421)
(3.85781738 0.00605498178 0.527048729)
(3.27414789 0.00844933431 0.417405112)
(2.69837843 0.00957602363 0.263219225)
(2.30819276 0.00941732477 0.147278347)
(2.07383872 0.00795124325 0.075108015)
(1.9256403 0.00518597882 0.0360457641)
(1.83019959 0.00113816986 0.0172262786)
(1.76959015 -0.00418762276 0.00892649081)
(1.73009853 -0.0107984176 0.00560213941)
(1.70288009 -0.0187117946 0.00442490408)
(1.68322099 -0.0279571926 0.00402262814)
(1.66869474 -0.0385742179 0.00380683194)
(1.65804596 -0.0506068483 0.00357520812)
(1.65069693 -0.0640942609 0.00328331033)
(1.64648829 -0.0790566003 0.0029393878)
(1.64553131 -0.095472896 0.00256353778)
(1.64813502 -0.113248239 0.00217298769)
(1.65477098 -0.132167317 0.00177817583)
(1.66604475 -0.151831913 0.00138335245)
(1.68265234 -0.171581989 0.000988560018)
(1.70530161 -0.190404497 0.000591759256)
(1.7345769 -0.206843074 0.000191025814)
(1.77072641 -0.218937125 -0.000212799369)
(1.81336012 -0.224240319 -0.000612419183)
(1.86107569 -0.219997954 -0.000990250338)
(1.9110918 -0.203576721 -0.00131166391)
(1.95908913 -0.173246631 -0.00152650793)
(4.39467455 0.00165175591 0.341428829)
(3.85737415 0.00416001686 0.527136129)
(3.27303392 0.00568696554 0.417519361)
(2.69637888 0.00617372585 0.263327303)
(2.30521172 0.00555687528 0.147372216)
(2.06981875 0.0037801686 0.0751937468)
(1.92052623 0.000819567554 0.0361284414)
(1.82394183 -0.00334242631 0.0173067292)
(1.76213978 -0.00873717296 0.00900498466)
(1.72140171 -0.0154114341 0.00567903665)
(1.69287561 -0.0234281386 0.00449987708)
(1.67183961 -0.0328684407 0.00409527791)
(1.65586035 -0.0438314746 0.00387700833)
(1.6436805 -0.0564311005 0.00364278193)
(1.63473077 -0.0707893498 0.00334780695)
(1.62887844 -0.0870243252 0.00299967827)
(1.62629066 -0.105228839 0.00261755482)
(1.62737637 -0.125435208 0.00221742739)
(1.63276971 -0.147560584 0.00180816764)
(1.64332342 -0.171326387 0.00139213567)
(1.66008689 -0.196145888 0.000967237282)
(1.68424084 -0.220977576 0.000529213869)
(1.71695276 -0.244152255 7.42740319e-05)
(1.75910774 -0.263203242 -0.00039742304)
(1.81086396 -0.274766711 -0.000876671554)
(1.871027 -0.27469051 -0.00133912978)
(1.93627814 -0.258531742 -0.00172694203)
(2.00059934 -0.2227728 -0.00195330743)
(4.3946103 0.00105494583 0.341456934)
(3.85697266 0.00262632613 0.527215778)
(3.27201939 0.00345581484 0.417622705)
(2.69455038 0.0034349671 0.263424749)
(2.3024731 0.002466005 0.147456504)
(2.06610159 0.000466857694 0.0752699894)
(1.91575719 -0.00261315192 0.0362013553)
(1.81804924 -0.00681839701 0.0173784577)
(1.75504805 -0.0122087549 0.00907603333)
(1.71302216 -0.0188660263 0.00574899679)
(1.68310385 -0.0268950121 0.00456825004)
(1.66055392 -0.0364265517 0.0041617108)
(1.64292014 -0.0476203847 0.00394134213)
(1.62892818 -0.0606659262 0.00370478969)
(1.61799894 -0.0757804314 0.00340681127)
(1.61000562 -0.0932020982 0.00305417567)
(1.60515 -0.113173619 0.00266481502)
(1.60392387 -0.135909883 0.00225302965)
(1.60711988 -0.16154095 0.00182549799)
(1.61586173 -0.190018117 0.00138192717)
(1.63162697 -0.220967879 0.000917286923)
(1.65622783 -0.253478044 0.000424655561)
(1.69169537 -0.285806956 -0.000100945261)
(1.73998265 -0.315028937 -0.000657119733)
(1.80236519 -0.336684602 -0.00122581839)
(1.87847649 -0.344639112 -0.0017683402)
(1.96476324 -0.331436806 -0.00218868515)
(2.05309041 -0.290105772 -0.00237746826)
(4.39455264 0.000585669477 0.341483014)
(3.85660981 0.00142306191 0.527288471)
(3.27109706 0.00171351643 0.417716117)
(2.69288162 0.00131290223 0.263512334)
(2.29996335 0.000100147906 0.147531361)
(2.06267365 -0.00202489239 0.0753367515)
(1.91132483 -0.00513296425 0.0362658399)
(1.81252492 -0.00928712039 0.0174430873)
(1.7483328 -0.014570213 0.00914036529)
(1.70499575 -0.0210933907 0.00581243291)
(1.67362189 -0.0289972754 0.00463028715)
(1.64944317 -0.0384576239 0.00422195611)
(1.6299731 -0.0496922802 0.0039995282)
(1.61389981 -0.0629674214 0.00376047699)
(1.6006078 -0.0786029551 0.00345892517)
(1.58994265 -0.0969748389 0.00310048868)
(1.58210098 -0.118509658 0.00270132549)
(1.57761434 -0.143664076 0.00227318889)
(1.57739614 -0.172877291 0.00181931552)
(1.58282591 -0.206477823 0.00133510245)
(1.59584916 -0.244516863 0.000810715322)
(1.61905763 -0.286490494 0.000235214786)
(1.65568006 -0.330906939 -0.000396899185)
(1.7093508 -0.374663386 -0.00107371609)
(1.78346 -0.412282857 -0.00174675347)
(1.87977946 -0.435099203 -0.00232375975)
(1.99562669 -0.430899424 -0.00258698047)
(2.12095714 -0.385842395 -0.0024693391)
(4.39450164 0.000231672451 0.341507402)
(3.85628549 0.000520357015 0.527354742)
(3.27026638 0.000418703059 0.4177999)
(2.69137211 -0.000240430506 0.263589908)
(2.29768382 -0.00158938695 0.147596789)
(2.05954273 -0.00373861531 0.0753952313)
(1.90724925 -0.00677075684 0.0363234743)
(1.80740529 -0.0107615002 0.0175011768)
(1.74205143 -0.0158105654 0.00919823369)
(1.6974072 -0.0220502603 0.00586946064)
(1.66454768 -0.0296484481 0.00468592546)
(1.63866342 -0.0388173475 0.00427572189)
(1.61721602 -0.0498250277 0.00405097307)
(1.59883141 -0.0630083505 0.00380880289)
(1.58282331 -0.0787880076 0.00350238003)
(1.56896288 -0.0976843863 0.00313560526)
(1.55737964 -0.120330647 0.00272189451)
(1.54856734 -0.147476227 0.00226885769)
(1.54347102 -0.17996796 0.00177380271)
(1.54364087 -0.218685217 0.00122423454)
(1.55144538 -0.264387866 0.000600971856)
(1.57032268 -0.317409345 -0.000115676984)
(1.60500329 -0.377090704 -0.000934681656)
(1.66155786 -0.440852505 -0.00183120921)
(1.74700399 -0.502807901 -0.00272302714)
(1.86782907 -0.551724117 -0.00344561797)
(2.02565068 -0.56916195 -0.00351300866)
(2.21235443 -0.528209743 -0.00303995874)
(4.39445834 -1.83045527e-05 0.34153092)
(3.85600301 -0.00011194738 0.527415273)
(3.26953145 -0.000472764116 0.417874144)
(2.69002888 -0.00127735961 0.263657792)
(2.29564874 -0.00265784917 0.147653851)
(2.05673468 -0.00472724448 0.0754468591)
(1.90357218 -0.00757269593 0.0363746816)
(1.8027529 -0.0112767099 0.0175528103)
(1.7362948 -0.0159477162 0.00924958731)
(1.69038425 -0.0217292841 0.00591990104)
(1.65605526 -0.0288051889 0.00473485998)
(1.62844514 -0.0374111019 0.00432256195)
(1.60494602 -0.0478505416 0.00409501729)
(1.5840954 -0.0605149312 0.00384873679)
(1.56509721 -0.0759096668 0.00353546851)
(1.54759056 -0.094686886 0.00315653957)
(1.53155461 -0.117684167 0.0027210509)
(1.51732842 -0.14596605 0.00222966766)
(1.50573249 -0.180859507 0.00166899745)
(1.49829626 -0.223961842 0.00101105295)
(1.49761381 -0.277073906 0.00021638173)
(1.50784896 -0.341962064 -0.000755795394)
(1.53537674 -0.41975921 -0.00192331925)
(1.58946561 -0.509806496 -0.00325103642)
(1.6827848 -0.607330029 -0.00465988478)
(1.83049275 -0.699316083 -0.00600388888)
(2.04676352 -0.759789461 -0.0068870778)
(2.3387934 -0.733852702 -0.00825180472)
(4.39442244 -0.00017521466 0.341552633)
(3.85576304 -0.000506055464 0.527468802)
(3.26889777 -0.00100952604 0.417938374)
(2.68886547 -0.00185543367 0.263716387)
(2.29388181 -0.00316875169 0.147703248)
(2.05428666 -0.00505722244 0.0754917819)
(1.90034953 -0.00760537881 0.0364192912)
(1.79864936 -0.0108954543 0.0175977095)
(1.73117894 -0.0150356819 0.00929408639)
(1.68408824 -0.0201696177 0.00596337526)
(1.64836468 -0.0264828701 0.00477669082)
(1.61908341 -0.0342168779 0.00436204724)
(1.59355285 -0.0436883049 0.00413115887)
(1.57019887 -0.0553151523 0.00387961126)
(1.54807799 -0.0696530783 0.00355715896)
(1.5266368 -0.0874453992 0.00316143093)
(1.50560782 -0.109690714 0.00269498098)
(1.48502477 -0.137732664 0.00214713828)
(1.46535425 -0.173374895 0.00148532257)
(1.44777086 -0.219017313 0.000650109367)
(1.43464552 -0.277788634 -0.000446345537)
(1.43036383 -0.353584722 -0.00190878359)
(1.44263139 -0.450884383 -0.00382646659)
(1.48444192 -0.573839815 -0.00623950911)
(1.57686401 -0.723558301 -0.00921052246)
(1.74989735 -0.891287607 -0.0126211841)
(2.04795754 -1.04310687 -0.0168132505)