/*--------------------------------*- C++ -*----------------------------------*\
| =========                 |                                                 |
| \\      /  F ield         | foam-extend: Open Source CFD                    |
|  \\    /   O peration     | Version:     4.1                                |
|   \\  /    A nd           | Web:         http://www.foam-extend.org         |
|    \\/     M anipulation  |                                                 |
\*---------------------------------------------------------------------------*/
FoamFile
{
    version     2.0;
    format      ascii;
    class       volVectorField;
    location    "0.25";
    object      U_0;
}
// * * * * * * * * * * * * * * * * * * * * * * * * * * * * * * * * * * * * * //

dimensions      [0 1 -1 0 0 0 0];

internalField   nonuniform List<vector> 
35840
(
(3.94086043 0.268528566 0.261844302)
(3.2079541 0.371831543 0.357379707)
(2.43829745 0.266506606 0.249860715)
(1.72035008 0.156944297 0.141978796)
(1.29367267 0.0888158244 0.0772237195)
(1.05218836 0.0517232494 0.0439399098)
(0.893433488 0.0312029412 0.0270980683)
(0.785226432 0.0189906705 0.0180829031)
(0.711707574 0.0115182216 0.01314585)
(0.660062722 0.0069419837 0.0104235265)
(0.622086276 0.00408634866 0.00881545143)
(0.593112972 0.00225292568 0.00773691669)
(0.570358677 0.00105148968 0.00691658452)
(0.55206707 0.000254475444 0.00623259648)
(0.537104382 -0.000277383549 0.00563023645)
(0.524714594 -0.000630313905 0.00508591967)
(0.51436786 -0.000858190419 0.00458957045)
(0.505670608 -0.000996165474 0.00413572899)
(0.498324321 -0.00106756304 0.00372058924)
(0.492087765 -0.00108731108 0.00334097048)
(0.486760749 -0.00106555396 0.0029938508)
(0.482173194 -0.00100979948 0.00267652161)
(0.478177849 -0.000925981938 0.00238673151)
(0.474645694 -0.000819054877 0.00212268144)
(0.471462892 -0.000693471893 0.00188300091)
(0.468528929 -0.000553514331 0.00166670134)
(0.465755582 -0.000403458793 0.00147310464)
(0.463066473 -0.00024760996 0.00130175659)
(4.52124972 0.40995322 0.331400002)
(4.20224644 0.638136621 0.509000352)
(3.6367639 0.543495471 0.407274892)
(2.94289546 0.391288924 0.261505765)
(2.4156532 0.267500667 0.152219387)
(2.06113249 0.181541262 0.0859715908)
(1.80860683 0.124032404 0.0502570121)
(1.62434907 0.0850654752 0.031748685)
(1.49029021 0.0584597747 0.0220778375)
(1.39086862 0.0403191888 0.0169219065)
(1.3148463 0.0278689078 0.0140052966)
(1.25519779 0.0191981672 0.0121487918)
(1.20742512 0.0130602039 0.0108037213)
(1.1684986 0.00864489273 0.00973018418)
(1.13634054 0.00542191736 0.00881940063)
(1.10949819 0.00304445335 0.00801919442)
(1.08692045 0.00128498423 0.00730284421)
(1.06782056 -8.2560769e-06 0.00665481335)
(1.05158137 -0.000938241602 0.00606413846)
(1.03770797 -0.00157598957 0.00552182658)
(1.02579482 -0.00197213536 0.00502037415)
(1.01550015 -0.00216413898 0.00455387557)
(1.0065288 -0.00218125765 0.00411791612)
(0.998622794 -0.0020478526 0.00370929151)
(0.991554555 -0.00178558413 0.00332584378)
(0.985122554 -0.0014148895 0.00296633505)
(0.979148677 -0.000955884514 0.00263030675)
(0.973476886 -0.000428790157 0.00231790937)
(4.44213364 0.221361184 0.337952105)
(4.08278446 0.43651541 0.51881947)
(3.65713796 0.463114446 0.418089756)
(3.13712488 0.408851157 0.275889664)
(2.71978769 0.331882833 0.166458835)
(2.42182868 0.25758909 0.0961061571)
(2.19811523 0.195654926 0.0564769393)
(2.02637776 0.14702667 0.035896513)
(1.89488892 0.109764828 0.0253585734)
(1.79249177 0.0816132423 0.019821777)
(1.7106353 0.06049802 0.0166913241)
(1.64389425 0.0446677115 0.0146528876)
(1.58872317 0.0327456489 0.01310844)
(1.54261747 0.0236961333 0.011819138)
(1.50375781 0.0167633819 0.0106928216)
(1.47079729 0.0114098247 0.00969117292)
(1.44270746 0.00725922693 0.00879518159)
(1.41867872 0.00404979734 0.00799168079)
(1.39805659 0.00159860575 0.00726850949)
(1.38030165 -0.000224370852 0.00661380769)
(1.36495537 -0.00151348629 0.00601644523)
(1.3516257 -0.00233970848 0.00546661847)
(1.33997019 -0.00275891763 0.00495629765)
(1.32968576 -0.00281814137 0.00447925617)
(1.32050197 -0.00255988028 0.00403094495)
(1.31217667 -0.00202499378 0.00360832651)
(1.30449335 -0.00125452709 0.00320966992)
(1.29725984 -0.000290688048 0.00283430736)
(4.41370729 0.123369587 0.337929374)
(3.97527159 0.285994675 0.516843828)
(3.52614194 0.346940029 0.410945538)
(3.04826476 0.341758684 0.267056751)
(2.69650276 0.30472087 0.158689048)
(2.46049524 0.256409191 0.0893129121)
(2.28810772 0.208516733 0.0503502689)
(2.15602189 0.166226257 0.0306500959)
(2.05358729 0.13081703 0.0211787763)
(1.97173581 0.101968057 0.0166857403)
(1.9039801 0.0788306548 0.0144691335)
(1.84662454 0.0604285636 0.0131715466)
(1.79750754 0.0458347541 0.0121835494)
(1.75517416 0.0342493448 0.0112853211)
(1.71856148 0.0250237874 0.0104201232)
(1.68684856 0.0176559219 0.00958570146)
(1.65936385 0.0117695754 0.00879299712)
(1.63553556 0.00708894652 0.00805144501)
(1.61486655 0.00341391483 0.00736482208)
(1.59691941 0.000599314726 0.0067317764)
(1.58130477 -0.00146186939 0.00614767307)
(1.56767333 -0.00285130458 0.00560672232)
(1.55570906 -0.00363433386 0.00510290824)
(1.54512407 -0.00386727966 0.00463076734)
(1.53565517 -0.00360293575 0.00418583619)
(1.52706178 -0.00289436232 0.00376481895)
(1.51912499 -0.00179733046 0.00336558484)
(1.5116476 -0.000371613717 0.00298705774)
(4.40562816 0.0838874195 0.338530509)
(3.9270927 0.205873028 0.518667946)
(3.4345801 0.264637114 0.409526533)
(2.94273374 0.274640143 0.261034608)
(2.60542407 0.257665474 0.150312106)
(2.39687245 0.227958781 0.0806007651)
(2.25545629 0.19419515 0.0421481664)
(2.15329034 0.161454871 0.0232707426)
(2.07740054 0.132019236 0.0147419787)
(2.0179404 0.10653901 0.0111891041)
(1.96850604 0.0849433507 0.00984775796)
(1.92584674 0.0668718034 0.0093335905)
(1.88837863 0.0518623753 0.00902132567)
(1.85523649 0.0394464106 0.00868679933)
(1.82588883 0.0291984708 0.0082809528)
(1.79995852 0.0207585338 0.00781576379)
(1.77712708 0.013836609 0.00731810521)
(1.75709472 0.00820733971 0.0068126015)
(1.73956978 0.00369989484 0.00631633195)
(1.72426732 0.000186593661 0.00583875194)
(1.71091204 -0.00242876236 0.00538379851)
(1.69923792 -0.00422059794 0.00495225642)
(1.6889897 -0.00524980885 0.0045428748)
(1.67992345 -0.00557096994 0.00415352445)
(1.67180726 -0.00523808995 0.00378200768)
(1.66442249 -0.00430888568 0.00342650385)
(1.65756532 -0.00284766801 0.00308578851)
(1.65104884 -0.000926856253 0.00275930717)
(4.40178166 0.0613579197 0.339164947)
(3.90241652 0.153224394 0.520514127)
(3.38074027 0.20441033 0.410099367)
(2.86921092 0.221079153 0.258748576)
(2.52750003 0.21574355 0.145980109)
(2.32476426 0.198073846 0.0755301075)
(2.19488193 0.174620979 0.0370224833)
(2.10722482 0.149767263 0.0183402509)
(2.046716 0.125950518 0.01011686)
(2.00215414 0.104238321 0.00691340388)
(1.96645038 0.0849754175 0.00592985028)
(1.93606401 0.0681651221 0.00577170916)
(1.90934803 0.0536512802 0.00580765161)
(1.88551267 0.0412124309 0.00580469151)
(1.86417659 0.0306146444 0.00570628364)
(1.84514087 0.021640143 0.00552045991)
(1.82826437 0.0141008821 0.00527316967)
(1.81340846 0.00784289528 0.00499022123)
(1.80041996 0.00274508885 0.00469119735)
(1.78912805 -0.00128543866 0.00438862762)
(1.77935019 -0.00431990361 0.00408988568)
(1.77089205 -0.00641407549 0.0037988062)
(1.76355368 -0.0076153315 0.00351673731)
(1.75713246 -0.00796918051 0.00324368417)
(1.75142653 -0.00752486917 0.00297910268)
(1.74623842 -0.00633993075 0.00272236629)
(1.74137896 -0.00448344163 0.00247304036)
(1.73667142 -0.00203774299 0.00223103067)
(4.39956815 0.0466870875 0.339653863)
(3.88830249 0.117720639 0.521954429)
(3.34831374 0.161235972 0.411270107)
(2.82102653 0.180134873 0.258566751)
(2.47120561 0.181400655 0.144564164)
(2.26666148 0.171508542 0.0735015818)
(2.13922001 0.1554009 0.0347882583)
(2.05689782 0.136646037 0.0160501421)
(2.00341214 0.117486428 0.00782594509)
(1.96662961 0.0991293692 0.00464336925)
(1.93887783 0.082149583 0.00368839961)
(1.91626192 0.0667750235 0.0035702754)
(1.89691997 0.0530485119 0.00366472893)
(1.87994753 0.0409189454 0.00373962963)
(1.86492181 0.030293992 0.00373464957)
(1.85165098 0.0210702342 0.00365286963)
(1.84002953 0.0131498357 0.00351564706)
(1.82996857 0.00644892091 0.00334506023)
(1.82136849 0.000900632395 0.00315796492)
(1.81411075 -0.00354605937 0.0029653087)
(1.80805762 -0.00692921279 0.00277373765)
(1.80305258 -0.00927816682 0.00258665674)
(1.79892479 -0.0106197287 0.00240530938)
(1.79549249 -0.0109841052 0.00222977293)
(1.79256716 -0.0104105217 0.00205959446)
(1.78995842 -0.00895217825 0.00189416535)
(1.78747949 -0.00667999597 0.00173294536)
(1.78495332 -0.00368463372 0.00157559496)
(4.39821719 0.0366462815 0.340043528)
(3.87961466 0.0929753095 0.523110704)
(3.32761899 0.129550383 0.412497039)
(2.78860324 0.148160701 0.259134413)
(2.43112687 0.152906561 0.144409591)
(2.22287878 0.148064661 0.0729520987)
(2.09461784 0.137242052 0.0341045314)
(2.01359706 0.123214615 0.0153203575)
(1.96284098 0.107890111 0.00706002333)
(1.92964555 0.0924488662 0.00383056519)
(1.90595836 0.0775693184 0.00281417055)
(1.88763897 0.0636158485 0.00262814945)
(1.87265817 0.0507659278 0.00266043954)
(1.85999832 0.0390907088 0.00268707186)
(1.84916529 0.0286042764 0.00265070939)
(1.83992766 0.0192934948 0.00255431354)
(1.83216321 0.0111360669 0.00241760235)
(1.82578155 0.00411103546 0.00226036685)
(1.82069018 -0.00179615007 0.00209707916)
(1.81678325 -0.0065925821 0.00193683112)
(1.81393339 -0.0102786697 0.00178468898)
(1.81199348 -0.0128520744 0.00164266895)
(1.81079756 -0.0143131676 0.00151097488)
(1.81016353 -0.0146710016 0.0013888814)
(1.80989727 -0.0139495373 0.0012752522)
(1.80979817 -0.0121934559 0.00116883942)
(1.80966594 -0.00947275666 0.00106842782)
(1.80930871 -0.00588534048 0.000972922995)
(4.39732339 0.0293714868 0.340350324)
(3.87389259 0.074794123 0.524007003)
(3.31373588 0.105402514 0.413537833)
(2.76609985 0.122599057 0.259834653)
(2.40220153 0.12895827 0.144690263)
(2.1900438 0.127291972 0.07299916)
(2.05987177 0.120174773 0.034085475)
(1.97849386 0.109714871 0.0152912688)
(1.9284994 0.0974675531 0.00701813996)
(1.89680519 0.0844954137 0.00375753587)
(1.87509443 0.0714875901 0.00268904153)
(1.85905349 0.0588729753 0.00243522243)
(1.84653605 0.0469109814 0.00239362175)
(1.83644385 0.0357563586 0.0023486235)
(1.8282283 0.0255015631 0.00224793061)
(1.82162294 0.01620407 0.00209693608)
(1.81648487 0.00790421351 0.00191617062)
(1.81271281 0.000636485828 0.0017252299)
(1.81021029 -0.00556454715 0.00153801458)
(1.8088687 -0.0106614005 0.00136299236)
(1.80855922 -0.0146141633 0.00120434092)
(1.80913036 -0.0173843734 0.00106329631)
(1.81040742 -0.0189403805 0.00093943118)
(1.81219421 -0.0192641224 0.000831462249)
(1.81427682 -0.0183587461 0.00073772229)
(1.81642984 -0.0162559948 0.000656436208)
(1.81842477 -0.0130222162 0.000585784547)
(1.8200404 -0.00876195667 0.000523937302)
(4.39669877 0.023856862 0.340587832)
(3.86993361 0.0608972617 0.524693634)
(3.30404908 0.0864851735 0.414372641)
(2.75002857 0.101827005 0.260486725)
(2.3809169 0.108653442 0.145090299)
(2.1651432 0.108839579 0.0732537763)
(2.03275467 0.104209911 0.0343015453)
(1.95032117 0.0963437128 0.0155083518)
(1.90015782 0.0864756388 0.00723529591)
(1.86892242 0.0755147678 0.00396147753)
(1.84810463 0.0641042356 0.00286342865)
(1.8332574 0.0526847417 0.00256584149)
(1.82214322 0.0415549833 0.00247182848)
(1.81360213 0.0309203945 0.00237139359)
(1.80704481 0.0209273175 0.0022161738)
(1.8021793 0.0116863786 0.00201391455)
(1.79884816 0.00328882874 0.0017864325)
(1.79694273 -0.00418263229 0.00155392731)
(1.79636341 -0.0106472326 0.00133074975)
(1.79699914 -0.0160228363 0.00112545441)
(1.79871749 -0.0202267748 0.000942079559)
(1.80135904 -0.0231796581 0.000781788083)
(1.80473496 -0.0248116458 0.000644151457)
(1.80862752 -0.0250708262 0.000527910827)
(1.81279355 -0.0239329561 0.000431298248)
(1.81697108 -0.0214113896 0.000352280587)
(1.8208897 -0.0175656151 0.000288776758)
(1.82428433 -0.0125067792 0.000238723071)
(4.39624595 0.0195325593 0.340771048)
(3.86708798 0.0499399955 0.525221445)
(3.29705552 0.0713010153 0.415032077)
(2.73823151 0.0846708791 0.261042136)
(2.36492677 0.0912850497 0.145485567)
(2.14597287 0.0924242454 0.0735527371)
(2.01137708 0.0893819736 0.0345732734)
(1.92760043 0.0833307351 0.0157807815)
(1.87679572 0.0752335706 0.00750947767)
(1.84545045 0.0658435753 0.0042294795)
(1.82491663 0.0557306663 0.00311478322)
(1.81064488 0.0453143382 0.00279087068)
(1.80032429 0.0349019526 0.00266385453)
(1.79274439 0.0247238699 0.00252697971)
(1.78728288 0.0149599296 0.00233424694)
(1.7836283 0.00575868489 0.00209485061)
(1.78161338 -0.00274847264 0.00183142729)
(1.7811266 -0.0104371465 0.00156484296)
(1.78206869 -0.0171830956 0.0013099486)
(1.78432972 -0.0228593916 0.00107543407)
(1.78777546 -0.0273373845 0.000865547243)
(1.79223885 -0.0304909843 0.000681771137)
(1.79751529 -0.0322044398 0.000523917836)
(1.80336089 -0.032383163 0.000390900453)
(1.8094949 -0.0309667141 0.000281214346)
(1.81560706 -0.02794264 0.000193133906)
(1.82137045 -0.0233591313 0.0001247852)
(1.82645956 -0.0173339156 7.41239564e-05)
(4.39590705 0.0160498255 0.340912795)
(3.86497366 0.0410784952 0.525630049)
(3.29184808 0.0588561283 0.415551443)
(2.72934125 0.0702964165 0.261498555)
(2.35265635 0.0763183415 0.145835337)
(2.1309618 0.077817278 0.073836491)
(1.99429411 0.0757142308 0.034836289)
(1.90908091 0.0708752824 0.016041886)
(1.85738794 0.0640425676 0.00776994947)
(1.82559707 0.055826288 0.00448464785)
(1.80496793 0.0467140646 0.00335830047)
(1.79087722 0.0370858407 0.00301681729)
(1.78095793 0.0272373691 0.00286803957)
(1.77395991 0.0174050384 0.00270704063)
(1.76923522 0.00778607301 0.00248908306)
(1.76645814 -0.00144600464 0.00222402385)
(1.76545626 -0.0101290785 0.00193499149)
(1.76611977 -0.018102776 0.00164330384)
(1.76835474 -0.0252019801 0.00136387771)
(1.7720566 -0.0312541473 0.00110550924)
(1.77709303 -0.0360802651 0.000872630686)
(1.78329177 -0.0395000361 0.000666977742)
(1.79043206 -0.041341562 0.000488702732)
(1.79823993 -0.0414554434 0.000337171734)
(1.80638869 -0.0397325592 0.000211372142)
(1.81450629 -0.0361238057 0.000110074622)
(1.82219093 -0.030659058 3.1845082e-05)
(1.829035 -0.0234615996 -2.504914e-05)
(4.39564607 0.0131859284 0.341023323)
(3.86335531 0.0337684693 0.525949851)
(3.28785838 0.0484857395 0.415963001)
(2.72246806 0.058112223 0.261870019)
(2.34303138 0.0633452809 0.146132808)
(2.11898596 0.0648215001 0.074087388)
(1.98042185 0.0632000584 0.0350710298)
(1.89377304 0.0591186545 0.0162728565)
(1.84106578 0.0531434171 0.00799798038)
(1.80862112 0.0457598884 0.00470680745)
(1.7876409 0.0373739864 0.00357064979)
(1.77345248 0.0283172442 0.00321576175)
(1.76364971 0.0188610745 0.00305109446)
(1.75695459 0.00923443892 0.00287277654)
(1.75270205 -0.000360754149 0.00263666015)
(1.75055892 -0.00973684872 0.00235298968)
(1.75035439 -0.018709168 0.00204521645)
(1.75198687 -0.0270867655 0.00173461549)
(1.75537428 -0.0346659602 0.00143595288)
(1.76042421 -0.0412270365 0.00115802213)
(1.76701272 -0.0465350372 0.000905369721)
(1.77496726 -0.0503456832 0.000679944917)
(1.78405291 -0.0524172513 0.000482249546)
(1.79396285 -0.0525288473 0.000312138557)
(1.80431525 -0.0505046231 0.000169192322)
(1.81465955 -0.046242099 5.2866146e-05)
(1.82449485 -0.0397409522 -3.75575893e-05)
(1.8333015 -0.0311267138 -0.00010318095)
(4.39543974 0.0107938102 0.341110618)
(3.86208203 0.02764776 0.526203852)
(3.28471769 0.0397345645 0.41629303)
(2.7170185 0.0476927116 0.262173239)
(2.33530846 0.0520518419 0.14638263)
(2.1092371 0.0532671635 0.0743034326)
(1.96895113 0.0518114215 0.0352745388)
(1.88090931 0.0481521103 0.0164719943)
(1.82712669 0.0427161852 0.00819303849)
(1.79389312 0.0358829255 0.00489573961)
(1.77237769 0.0279816159 0.00375084737)
(1.75787809 0.0192920715 0.00338492498)
(1.74796418 0.0100535765 0.00320767536)
(1.74134168 0.000477790897 0.00301580295)
(1.73733776 -0.00923896432 0.00276556475)
(1.73562082 -0.0189041508 0.00246754603)
(1.73603024 -0.0283182621 0.00214509616)
(1.73848141 -0.0372653915 0.00181914239)
(1.74291392 -0.045505614 0.0015042544)
(1.74925825 -0.0527703102 0.00120913029)
(1.75740949 -0.0587619542 0.000938336021)
(1.76720407 -0.0631600659 0.00069397298)
(1.77839881 -0.0656350477 0.000476852716)
(1.7906539 -0.0658713062 0.000287324222)
(1.8035233 -0.0635999323 0.000125688762)
(1.81645766 -0.0586392977 -7.66705832e-06)
(1.8288247 -0.0509389759 -0.000112394366)
(1.83995057 -0.0406188497 -0.000188555829)
(4.39527253 0.00877347089 0.341180769)
(3.86105379 0.0224685623 0.526409205)
(3.28217981 0.0322843243 0.416561843)
(2.71258836 0.0387289379 0.26242325)
(2.32896666 0.042197637 0.146592642)
(2.10113063 0.0430126177 0.0744882971)
(1.95927807 0.0415110191 0.0354497755)
(1.86989883 0.0380324356 0.0166430798)
(1.81501237 0.0328935761 0.00835983553)
(1.78089601 0.0263838038 0.00505667237)
(1.75870318 0.0187622639 0.00390405651)
(1.74371667 0.0102565699 0.00352880325)
(1.7334946 0.00106876027 0.00334108841)
(1.72673669 -0.00861460963 0.00313810297)
(1.72277236 -0.0186114603 0.00287657857)
(1.72128129 -0.0287332204 0.00256702597)
(1.72212291 -0.0387738624 0.00223231879)
(1.72524128 -0.0484989828 0.0018930279)
(1.73061132 -0.0576357996 0.00156346853)
(1.73820179 -0.0658657269 0.00125214934)
(1.74794335 -0.0728215681 0.000963521327)
(1.75969739 -0.0780919723 0.000699712257)
(1.77322501 -0.0812361955 0.000461785078)
(1.78815847 -0.0818121638 0.000250607631)
(1.80398048 -0.0794197143 6.73519602e-05)
(1.82001918 -0.073758335 -8.63366191e-05)
(1.83546812 -0.0646941635 -0.000208519889)
(1.84943928 -0.0523247153 -0.000297565394)
(4.39513382 0.0070552349 0.341238353)
(3.8602026 0.0180574277 0.526578608)
(3.28007663 0.025908717 0.416784799)
(2.70889752 0.0309949053 0.262632371)
(2.32363684 0.0335994601 0.146770709)
(2.09424159 0.0339428554 0.0746471236)
(1.95095198 0.0322609796 0.0356012473)
(1.86028901 0.0287958673 0.0167909841)
(1.80428399 0.0237760464 0.00850375212)
(1.76921255 0.0174144938 0.00519529521)
(1.74622343 0.00990651189 0.00403594146)
(1.73059453 0.00142790898 0.00365265415)
(1.71988124 -0.0078605212 0.0034561151)
(1.71278645 -0.017803815 0.0032442076)
(1.70865078 -0.0282425217 0.00297369016)
(1.70717433 -0.0390017406 0.00265455576)
(1.70824795 -0.049878726 0.00230922062)
(1.7118584 -0.0606291328 0.00195790524)
(1.71803341 -0.0709531646 0.00161454148)
(1.72680121 -0.0804833396 0.00128726189)
(1.73815236 -0.0887765482 0.000980240734)
(1.75199873 -0.0953142289 0.000695476631)
(1.76812866 -0.0995155644 0.000434157481)
(1.78616112 -0.100769275 0.00019765102)
(1.80550613 -0.098488957 -1.18342197e-05)
(1.82534361 -0.0921939692 -0.00019094195)
(1.84463674 -0.0816111964 -0.000335333207)
(1.86219698 -0.0667824195 -0.000440621373)
(4.39501623 0.00558953463 0.341286769)
(3.85948142 0.0142905382 0.526721402)
(3.27829149 0.0204443071 0.416973339)
(2.70574947 0.0243239332 0.262810213)
(2.31905556 0.0261181026 0.146923583)
(2.08826042 0.0259668035 0.0747848428)
(1.94363752 0.0240282011 0.0357333422)
(1.8517358 0.0204684271 0.0169201767)
(1.79460077 0.0154443775 0.00862944257)
(1.75851172 0.00910339983 0.00531630747)
(1.73461855 0.00158211818 0.00415098799)
(1.71820013 -0.00699527344 0.0037607786)
(1.70681575 -0.0165124525 0.00355723735)
(1.69917805 -0.0268524507 0.00333843804)
(1.69464544 -0.0378878355 0.00306066327)
(1.69294711 -0.0494688128 0.00273344383)
(1.69401683 -0.061408309 0.00237883094)
(1.69789991 -0.0734643406 0.00201653137)
(1.70469816 -0.085320414 0.00165990068)
(1.71452704 -0.0965657487 0.0013165055)
(1.7274712 -0.106678481 0.000990015654)
(1.74353183 -0.115016903 0.000682058702)
(1.76256363 -0.120826139 0.000393725333)
(1.78420342 -0.123269808 0.000126773521)
(1.80779966 -0.121497046 -0.000115403732)
(1.83236028 -0.114752955 -0.000327134387)
(1.85654589 -0.102531618 -0.000500447377)
(1.87874171 -0.084754706 -0.000626564807)
(4.3949146 0.00434040759 0.341328508)
(3.85885739 0.0110778274 0.526844394)
(3.27674276 0.0157712072 0.417135876)
(2.70300562 0.0185919246 0.262964045)
(2.31503468 0.0196478443 0.147056653)
(2.08296262 0.0190137776 0.0749056025)
(1.93708749 0.0167866819 0.0358497587)
(1.84398146 0.01307236 0.0170342752)
(1.78570334 0.00796848542 0.00874046257)
(1.74853714 0.00156494749 0.00542303337)
(1.72363576 -0.0060565782 0.00425241149)
(1.70628221 -0.0148231314 0.00385680843)
(1.69404293 -0.0246661549 0.0036480658)
(1.68564308 -0.0355140932 0.00342388591)
(1.68046316 -0.047282436 0.00314021358)
(1.67826815 -0.0598602756 0.00280626934)
(1.67904542 -0.0730926163 0.00244357227)
(1.6829151 -0.0867577783 0.0020711549)
(1.6900775 -0.100540114 0.00170161167)
(1.70077 -0.113999368 0.00134170408)
(1.71521756 -0.126539816 0.000994296175)
(1.73356778 -0.137385382 0.000660295903)
(1.75580492 -0.14557096 0.000340344524)
(1.78164261 -0.149965092 3.63478501e-05)
(1.81040404 -0.149343355 -0.000247023142)
(1.84091326 -0.142532684 -0.000501032173)
(1.87143929 -0.128637341 -0.0007123876)
(1.89975981 -0.107335721 -0.000865070016)
(4.39482528 0.00328119015 0.341365364)
(3.85830758 0.00835238542 0.526952476)
(3.27537348 0.0117998105 0.417278494)
(2.70056879 0.0137051624 0.263099219)
(2.31144114 0.0141078485 0.147174011)
(2.07818789 0.0130293547 0.0750126341)
(1.93112362 0.0105175157 0.0359533462)
(1.83683846 0.00662931182 0.0171359118)
(1.7774011 0.0014123824 0.00883912614)
(1.73909822 -0.00509480664 0.00551768283)
(1.71308545 -0.0128619991 0.00434304238)
(1.69464973 -0.0218672132 0.00394362177)
(1.68136331 -0.0320938902 0.00373090314)
(1.67196337 -0.043524214 0.003502474)
(1.66585335 -0.0561289023 0.00321412385)
(1.66283731 -0.069852841 0.00287462932)
(1.66296378 -0.0845946633 0.00250484512)
(1.66644262 -0.100178719 0.00212297028)
(1.67359847 -0.116318475 0.00174063148)
(1.68483148 -0.132571375 0.00136350032)
(1.7005667 -0.148287404 0.000993256639)
(1.72117874 -0.162557712 0.000629633143)
(1.74687991 -0.174176013 0.000272341778)
(1.7775649 -0.181634799 -7.69175861e-05)
(1.81261591 -0.183189137 -0.000412083834)
(1.85069464 -0.177030492 -0.00072041992)
(1.88957954 -0.161609299 -0.000980716389)
(1.92618161 -0.136123605 -0.00116474391)
(4.39474578 0.00239154651 0.341398587)
(3.85781626 0.0060630945 0.527049076)
(3.27414462 0.00846131808 0.417405484)
(2.69837229 0.00959109023 0.263219552)
(2.3081834 0.00943492577 0.147278623)
(2.07382569 0.00797092411 0.0751082795)
(1.92562305 0.00520727761 0.0360460506)
(1.83017761 0.00116059519 0.0172265935)
(1.76956283 -0.00416462609 0.00892682147)
(1.73006517 -0.0107755013 0.00560246783)
(1.70283992 -0.0186897264 0.00442521595)
(1.68317319 -0.0279369029 0.00402290568)
(1.66863843 -0.0385568738 0.00380704849)
(1.65798028 -0.0505939496 0.003575323)
(1.65062106 -0.0640877535 0.00328326322)
(1.64640161 -0.0790589944 0.00293909165)
(1.64543355 -0.0954873719 0.0025628722)
(1.64802652 -0.113278716 0.00217179503)
(1.65465306 -0.132218453 0.00177626201)
(1.66592016 -0.151908985 0.0013804983)
(1.68252581 -0.171690574 0.00098455063)
(1.70518044 -0.190549852 0.000586440757)
(1.73447151 -0.207029092 0.000184397084)
(1.77065051 -0.219164757 -0.000220462168)
(1.8133301 -0.224505478 -0.000620425948)
(1.86110884 -0.22028918 -0.000997408436)
(1.91120255 -0.20387336 -0.00131632194)
(1.95928363 -0.173519195 -0.00152685412)
(4.39467443 0.00165533233 0.341429004)
(3.85737301 0.00416929863 0.527136489)
(3.27303057 0.00570070977 0.417519743)
(2.69637256 0.00619109168 0.263327635)
(2.30520206 0.00557730628 0.147372495)
(2.06980525 0.00380322213 0.0751940169)
(1.9205083 0.000844831478 0.036128744)
(1.82391888 -0.00331538377 0.0173070552)
(1.76211106 -0.00870885633 0.00900531782)
(1.72136639 -0.0153824273 0.00567936106)
(1.69283272 -0.0233991324 0.00450017901)
(1.67178807 -0.0328402926 0.00409553562)
(1.65579894 -0.0438052981 0.00387718834)
(1.64360792 -0.0564083877 0.00364283258)
(1.63464565 -0.0707721243 0.00334764906)
(1.62877949 -0.0870153156 0.00299919371)
(1.62617681 -0.10523166 0.00261657435)
(1.62724707 -0.125454531 0.00221571934)
(1.63262536 -0.147602268 0.00180543114)
(1.643166 -0.171397504 0.00138800641)
(1.65992077 -0.196254543 0.000961319549)
(1.68407384 -0.221132348 0.000521160928)
(1.71679725 -0.244361018 6.39389688e-05)
(1.75898155 -0.263471065 -0.000409751529)
(1.81079047 -0.275092612 -0.000889957596)
(1.87103326 -0.27506312 -0.0013513221)
(1.93638979 -0.258924792 -0.0017349274)
(2.00083154 -0.223143286 -0.00195346957)
(4.39461018 0.00105898671 0.341457115)
(3.85697152 0.00263680124 0.527216143)
(3.27201602 0.00347135238 0.417623089)
(2.69454401 0.00345469301 0.263425081)
(2.30246334 0.00248935406 0.147456784)
(2.06608791 0.00049342357 0.0752702774)
(1.91573897 -0.00258370259 0.0362016725)
(1.8180258 -0.00678643091 0.0173787851)
(1.75501855 -0.0121746902 0.00907636073)
(1.7129856 -0.0188303303 0.00574931107)
(1.68305909 -0.0268582403 0.0045685339)
(1.66049959 -0.0363894122 0.00416193853)
(1.64285468 -0.0475838402 0.00394147337)
(1.62884977 -0.0606313407 0.00370475989)
(1.61790558 -0.0757497612 0.00340651823)
(1.60989515 -0.0931781247 0.0030534621)
(1.60502029 -0.113160221 0.0026634475)
(1.60377306 -0.135912344 0.00225067437)
(1.60694686 -0.161566286 0.00182169725)
(1.61566692 -0.190075359 0.00137608691)
(1.63141341 -0.221068207 0.000908698914)
(1.65600282 -0.253634533 0.000412592745)
(1.69147254 -0.286033537 -0.000117007337)
(1.73978422 -0.31533798 -0.000677083655)
(1.80222359 -0.337082379 -0.00124830342)
(1.87843381 -0.34511847 -0.00178994244)
(1.96486505 -0.331967208 -0.00220347892)
(2.05337201 -0.290624788 -0.00237805947)
(4.39455252 0.000590187476 0.341483192)
(3.8566087 0.00143473761 0.527288826)
(3.27109376 0.00173082518 0.417716494)
(2.69287536 0.00133498549 0.263512661)
(2.29995372 0.000126443182 0.147531656)
(2.06266015 -0.00199473621 0.0753370559)
(1.91130679 -0.0050992104 0.0362661571)
(1.81250159 -0.00925004338 0.0174434083)
(1.74830325 -0.0145300995 0.00914068059)
(1.70495889 -0.0210505452 0.00581272902)
(1.67357637 -0.0289520533 0.00463054468)
(1.6493874 -0.0384104953 0.00422214574)
(1.62990513 -0.049643938 0.00399960229)
(1.61381733 -0.0629189428 0.00376035678)
(1.60050807 -0.0785560217 0.00345848241)
(1.58982253 -0.0969320224 0.00309952024)
(1.58195699 -0.118474787 0.002699519)
(1.57744287 -0.1436427 0.00227007756)
(1.57719384 -0.172877265 0.00181422368)
(1.58259053 -0.206509986 0.00132709227)
(1.59558091 -0.244595716 0.000798565533)
(1.61876142 -0.286634649 0.000217488099)
(1.65536882 -0.331138802 -0.000421592555)
(1.70904995 -0.375007118 -0.0011060743)
(1.78321249 -0.412759106 -0.00178559275)
(1.87964952 -0.435714334 -0.00236426875)
(1.99569599 -0.431626779 -0.00261864851)
(2.12130823 -0.38659572 -0.00247688994)
(4.39450151 0.000236674882 0.341507547)
(3.85628438 0.000533190971 0.527355043)
(3.27026319 0.000437738997 0.417800269)
(2.69136616 -0.000216043084 0.263590233)
(2.29767463 -0.00156018409 0.147597093)
(2.0595298 -0.00370489995 0.0753955331)
(1.90723191 -0.0067327121 0.036323781)
(1.80738275 -0.0107192727 0.0175014829)
(1.74202273 -0.0157642781 0.00919852898)
(1.69737115 -0.0220000098 0.00586973091)
(1.66450281 -0.0295943247 0.00468615025)
(1.63860792 -0.0387594901 0.00427586875)
(1.61714765 -0.0497637266 0.00405098746)
(1.59874736 -0.0629442076 0.00380859218)
(1.58272014 -0.0787221647 0.00350178967)
(1.56883639 -0.0976188399 0.00313438354)
(1.55722483 -0.120268685 0.00271964039)
(1.54837843 -0.147423044 0.00226494482)
(1.54324166 -0.179931519 0.00176727423)
(1.54336481 -0.218677422 0.00121367166)
(1.55111791 -0.264426075 0.000584360773)
(1.56994327 -0.317518082 -0.000141010661)
(1.60458033 -0.37730305 -0.000971897299)
(1.66111617 -0.441209945 -0.00188323326)
(1.74659577 -0.503355994 -0.00279091098)
(1.86754756 -0.552498971 -0.00352540451)
(2.02563985 -0.570159583 -0.0035904179)
(2.21280367 -0.529315338 -0.00308527191)
(4.39445816 -1.28704608e-05 0.341530989)
(3.85600184 -9.80545198e-05 0.527415481)
(3.26952845 -0.000452067909 0.417874462)
(2.69002342 -0.00125077782 0.263658097)
(2.29564027 -0.00262588827 0.147654139)
(2.05672272 -0.0046901367 0.0754471439)
(1.9035561 -0.00753051947 0.0363749675)
(1.8027319 -0.0112294707 0.0175530922)
(1.73626793 -0.0158953515 0.00924985475)
(1.69035029 -0.0216716454 0.00592013945)
(1.65601268 -0.0287420446 0.00473504826)
(1.62839201 -0.037342174 0.00432266563)
(1.60487988 -0.0477755874 0.00409497672)
(1.58401307 -0.0604338788 0.00384844843)
(1.56499465 -0.075822818 0.00353475571)
(1.54746262 -0.0945952145 0.00315510675)
(1.53139476 -0.117589764 0.0027184104)
(1.5171285 -0.145872812 0.00222502368)
(1.50548257 -0.180774208 0.00166106687)
(1.49798479 -0.2238958 0.000997800233)
(1.4972286 -0.277045513 0.000194653765)
(1.50737971 -0.342000449 -0.00079070389)
(1.53482077 -0.419909006 -0.00197800725)
(1.58883913 -0.510133106 -0.00333402271)
(1.68214317 -0.607921814 -0.00478054988)
(1.82996224 -0.700274056 -0.00616866691)
(2.04658604 -0.761177549 -0.00708722993)
(2.33934788 -0.735502944 -0.00841669345)
(4.39442223 -0.000169442145 0.341552638)
(3.85576188 -0.000491207151 0.527468932)
(3.2688951 -0.000987329255 0.417938617)
(2.68886065 -0.00182686968 0.263716647)
(2.29387433 -0.00313429167 0.147703504)
(2.05427609 -0.00501701122 0.0754920386)
(1.90033529 -0.00755938773 0.0364195475)
(1.7986307 -0.010843546 0.0175979596)
(1.73115495 -0.0149775966 0.00929431982)
(1.68405774 -0.0201049396 0.00596357765)
(1.64832618 -0.0264110088 0.0047768415)
(1.61903499 -0.0341370766 0.0043621117)
(1.59349198 -0.0435996834 0.00413107589)
(1.57012222 -0.0552167909 0.00387927239)
(1.54798118 -0.0695441532 0.00355637552)
(1.52651401 -0.0873253942 0.0031598792)
(1.50545132 -0.109559769 0.00269210879)
(1.48482427 -0.137592171 0.00214200601)
(1.4650962 -0.173228543 0.0014763334)
(1.44743763 -0.218872936 0.000634552887)
(1.43421505 -0.277661464 -0.000473057335)
(1.42981048 -0.353503016 -0.00195435608)
(1.44193036 -0.450898981 -0.0039037952)
(1.48358215 -0.574039524 -0.00637026768)
(1.57587923 -0.724091624 -0.00943072584)
(1.74892923 -0.892381389 -0.0129857037)
(2.04737497 -1.04501054 -0.0173654839)