/*--------------------------------*- C++ -*----------------------------------*\
| =========                 |                                                 |
| \\      /  F ield         | foam-extend: Open Source CFD                    |
|  \\    /   O peration     | Version:     4.1                                |
|   \\  /    A nd           | Web:         http://www.foam-extend.org         |
|    \\/     M anipulation  |                                                 |
\*---------------------------------------------------------------------------*/
FoamFile
{
    version     2.0;
    format      ascii;
    class       volScalarField::DimensionedInternalField;
    location    "0.25";
    object      V0;
}
// * * * * * * * * * * * * * * * * * * * * * * * * * * * * * * * * * * * * * //

dimensions      [0 3 0 0 0 0 0];

value           nonuniform List<scalar> 
35840
(
1.00000007e-06
1.00000021e-06
1.00000035e-06
1.0000005e-06
1.00000068e-06
1.00000087e-06
1.0000011e-06
1.00000136e-06
1.00000167e-06
1.00000202e-06
1.00000243e-06
1.0000029e-06
1.00000344e-06
1.00000404e-06
1.00000471e-06
1.00000546e-06
1.00000627e-06
1.00000714e-06
1.00000806e-06
1.00000902e-06
1.00001e-06
1.00001098e-06
1.00001194e-06
1.00001286e-06
1.0000137e-06
1.00001445e-06
1.00001508e-06
1.00001558e-06
1.00000007e-06
1.00000021e-06
1.00000036e-06
1.00000052e-06
1.00000069e-06
1.00000089e-06
1.00000112e-06
1.00000139e-06
1.00000171e-06
1.00000208e-06
1.0000025e-06
1.00000299e-06
1.00000354e-06
1.00000417e-06
1.00000487e-06
1.00000565e-06
1.00000649e-06
1.00000741e-06
1.00000837e-06
1.00000939e-06
1.00001042e-06
1.00001146e-06
1.00001248e-06
1.00001345e-06
1.00001435e-06
1.00001515e-06
1.00001582e-06
1.00001635e-06
1.00000007e-06
1.00000022e-06
1.00000038e-06
1.00000055e-06
1.00000073e-06
1.00000095e-06
1.0000012e-06
1.00000149e-06
1.00000183e-06
1.00000223e-06
1.00000269e-06
1.00000322e-06
1.00000384e-06
1.00000453e-06
1.00000531e-06
1.00000618e-06
1.00000713e-06
1.00000816e-06
1.00000926e-06
1.00001041e-06
1.00001159e-06
1.00001278e-06
1.00001396e-06
1.00001508e-06
1.00001612e-06
1.00001705e-06
1.00001783e-06
1.00001845e-06
1.00000008e-06
1.00000024e-06
1.00000042e-06
1.0000006e-06
1.00000081e-06
1.00000105e-06
1.00000133e-06
1.00000166e-06
1.00000205e-06
1.0000025e-06
1.00000303e-06
1.00000365e-06
1.00000437e-06
1.00000519e-06
1.00000611e-06
1.00000715e-06
1.00000829e-06
1.00000953e-06
1.00001086e-06
1.00001226e-06
1.00001371e-06
1.00001518e-06
1.00001664e-06
1.00001803e-06
1.00001933e-06
1.00002049e-06
1.00002148e-06
1.00002225e-06
1.00000009e-06
1.00000028e-06
1.00000047e-06
1.00000068e-06
1.00000092e-06
1.00000119e-06
1.00000152e-06
1.0000019e-06
1.00000236e-06
1.0000029e-06
1.00000354e-06
1.00000429e-06
1.00000515e-06
1.00000615e-06
1.00000729e-06
1.00000857e-06
1.00001e-06
1.00001156e-06
1.00001324e-06
1.00001503e-06
1.00001688e-06
1.00001878e-06
1.00002066e-06
1.00002247e-06
1.00002417e-06
1.00002569e-06
1.00002698e-06
1.000028e-06
1.0000001e-06
1.00000032e-06
1.00000054e-06
1.00000078e-06
1.00000106e-06
1.00000139e-06
1.00000177e-06
1.00000223e-06
1.00000278e-06
1.00000343e-06
1.00000421e-06
1.00000513e-06
1.00000621e-06
1.00000746e-06
1.00000889e-06
1.00001051e-06
1.00001233e-06
1.00001434e-06
1.00001652e-06
1.00001884e-06
1.00002128e-06
1.00002377e-06
1.00002626e-06
1.00002868e-06
1.00003095e-06
1.00003299e-06
1.00003473e-06
1.00003609e-06
1.00000012e-06
1.00000037e-06
1.00000063e-06
1.00000091e-06
1.00000124e-06
1.00000162e-06
1.00000208e-06
1.00000264e-06
1.00000331e-06
1.00000411e-06
1.00000507e-06
1.00000622e-06
1.00000756e-06
1.00000914e-06
1.00001096e-06
1.00001304e-06
1.00001539e-06
1.000018e-06
1.00002085e-06
1.00002391e-06
1.00002714e-06
1.00003046e-06
1.0000338e-06
1.00003706e-06
1.00004013e-06
1.0000429e-06
1.00004527e-06
1.00004714e-06
1.00000014e-06
1.00000043e-06
1.00000073e-06
1.00000107e-06
1.00000145e-06
1.00000191e-06
1.00000247e-06
1.00000314e-06
1.00000395e-06
1.00000494e-06
1.00000613e-06
1.00000756e-06
1.00000926e-06
1.00001125e-06
1.00001358e-06
1.00001625e-06
1.00001929e-06
1.00002269e-06
1.00002644e-06
1.0000305e-06
1.00003479e-06
1.00003925e-06
1.00004375e-06
1.00004816e-06
1.00005234e-06
1.00005613e-06
1.00005937e-06
1.00006194e-06
1.00000016e-06
1.0000005e-06
1.00000085e-06
1.00000125e-06
1.0000017e-06
1.00000225e-06
1.00000291e-06
1.00000373e-06
1.00000472e-06
1.00000594e-06
1.00000741e-06
1.00000919e-06
1.00001132e-06
1.00001385e-06
1.00001682e-06
1.00002026e-06
1.00002419e-06
1.00002863e-06
1.00003356e-06
1.00003892e-06
1.00004465e-06
1.00005063e-06
1.00005671e-06
1.0000627e-06
1.0000684e-06
1.00007359e-06
1.00007805e-06
1.00008158e-06
1.00000019e-06
1.00000058e-06
1.00000099e-06
1.00000145e-06
1.00000199e-06
1.00000264e-06
1.00000344e-06
1.00000441e-06
1.00000562e-06
1.00000711e-06
1.00000893e-06
1.00001114e-06
1.00001381e-06
1.000017e-06
1.00002077e-06
1.00002518e-06
1.00003026e-06
1.00003604e-06
1.0000425e-06
1.00004959e-06
1.00005722e-06
1.00006524e-06
1.00007344e-06
1.00008157e-06
1.00008935e-06
1.00009646e-06
1.00010259e-06
1.00010747e-06
1.00000022e-06
1.00000067e-06
1.00000114e-06
1.00000168e-06
1.00000231e-06
1.00000308e-06
1.00000403e-06
1.0000052e-06
1.00000666e-06
1.00000847e-06
1.0000107e-06
1.00001343e-06
1.00001675e-06
1.00002076e-06
1.00002553e-06
1.00003115e-06
1.00003768e-06
1.00004517e-06
1.00005362e-06
1.00006296e-06
1.00007309e-06
1.00008382e-06
1.00009487e-06
1.0001059e-06
1.00011651e-06
1.00012626e-06
1.0001347e-06
1.00014142e-06
1.00000025e-06
1.00000076e-06
1.00000131e-06
1.00000193e-06
1.00000267e-06
1.00000357e-06
1.00000469e-06
1.00000608e-06
1.00000783e-06
1.00001002e-06
1.00001273e-06
1.00001608e-06
1.00002019e-06
1.00002518e-06
1.00003117e-06
1.0000383e-06
1.00004665e-06
1.00005631e-06
1.00006729e-06
1.00007955e-06
1.00009295e-06
1.00010726e-06
1.00012212e-06
1.00013706e-06
1.00015152e-06
1.00016487e-06
1.00017649e-06
1.00018577e-06
1.00000029e-06
1.00000087e-06
1.00000149e-06
1.0000022e-06
1.00000305e-06
1.00000409e-06
1.0000054e-06
1.00000705e-06
1.00000913e-06
1.00001175e-06
1.00001503e-06
1.0000191e-06
1.00002414e-06
1.00003031e-06
1.00003778e-06
1.00004674e-06
1.00005735e-06
1.00006972e-06
1.00008392e-06
1.00009992e-06
1.00011758e-06
1.00013659e-06
1.0001565e-06
1.00017669e-06
1.00019636e-06
1.00021464e-06
1.00023061e-06
1.00024342e-06
1.00000032e-06
1.00000097e-06
1.00000167e-06
1.00000248e-06
1.00000344e-06
1.00000465e-06
1.00000616e-06
1.00000809e-06
1.00001054e-06
1.00001365e-06
1.00001757e-06
1.00002248e-06
1.0000286e-06
1.00003615e-06
1.00004539e-06
1.00005657e-06
1.00006992e-06
1.00008566e-06
1.00010389e-06
1.00012464e-06
1.00014777e-06
1.00017292e-06
1.00019952e-06
1.00022671e-06
1.00025342e-06
1.00027841e-06
1.00030037e-06
1.00031805e-06
1.00000035e-06
1.00000108e-06
1.00000186e-06
1.00000276e-06
1.00000385e-06
1.00000522e-06
1.00000696e-06
1.00000919e-06
1.00001203e-06
1.00001567e-06
1.0000203e-06
1.00002617e-06
1.00003353e-06
1.00004268e-06
1.00005399e-06
1.0000678e-06
1.00008447e-06
1.00010429e-06
1.00012752e-06
1.00015424e-06
1.00018434e-06
1.00021743e-06
1.00025278e-06
1.00028929e-06
1.00032548e-06
1.00035961e-06
1.00038978e-06
1.00041418e-06
1.00000039e-06
1.00000118e-06
1.00000205e-06
1.00000304e-06
1.00000426e-06
1.0000058e-06
1.00000777e-06
1.0000103e-06
1.00001358e-06
1.00001779e-06
1.00002319e-06
1.00003009e-06
1.00003882e-06
1.0000498e-06
1.0000635e-06
1.00008039e-06
1.00010096e-06
1.0001257e-06
1.000155e-06
1.00018911e-06
1.00022798e-06
1.00027123e-06
1.00031797e-06
1.00036678e-06
1.00041569e-06
1.00046223e-06
1.00050367e-06
1.00053736e-06
1.00000042e-06
1.00000128e-06
1.00000222e-06
1.00000331e-06
1.00000466e-06
1.00000636e-06
1.00000856e-06
1.00001141e-06
1.00001511e-06
1.00001992e-06
1.00002614e-06
1.00003414e-06
1.00004436e-06
1.00005736e-06
1.00007376e-06
1.00009415e-06
1.00011923e-06
1.00014974e-06
1.00018631e-06
1.0002294e-06
1.00027916e-06
1.00033523e-06
1.00039664e-06
1.0004616e-06
1.00052748e-06
1.00059086e-06
1.0006478e-06
1.00069437e-06
1.00000045e-06
1.00000137e-06
1.00000237e-06
1.00000355e-06
1.00000501e-06
1.00000687e-06
1.00000929e-06
1.00001244e-06
1.00001658e-06
1.00002199e-06
1.00002903e-06
1.00003818e-06
1.00005e-06
1.00006515e-06
1.00008439e-06
1.00010861e-06
1.00013884e-06
1.00017602e-06
1.00022107e-06
1.00027486e-06
1.00033787e-06
1.00040991e-06
1.00048997e-06
1.00057594e-06
1.00066441e-06
1.00075066e-06
1.00082901e-06
1.00089359e-06
1.00000047e-06
1.00000144e-06
1.0000025e-06
1.00000375e-06
1.00000531e-06
1.00000731e-06
1.00000992e-06
1.00001336e-06
1.0000179e-06
1.00002387e-06
1.00003173e-06
1.00004201e-06
1.00005541e-06
1.00007273e-06
1.00009494e-06
1.00012327e-06
1.00015903e-06
1.00020355e-06
1.00025832e-06
1.00032465e-06
1.00040346e-06
1.00049498e-06
1.00059841e-06
1.00071144e-06
1.00082984e-06
1.00094725e-06
1.00105547e-06
1.00114561e-06
1.00000049e-06
1.00000149e-06
1.00000259e-06
1.00000389e-06
1.00000552e-06
1.00000763e-06
1.00001041e-06
1.00001408e-06
1.00001897e-06
1.00002545e-06
1.00003403e-06
1.00004536e-06
1.00006023e-06
1.00007966e-06
1.00010487e-06
1.00013738e-06
1.00017884e-06
1.0002312e-06
1.00029663e-06
1.00037711e-06
1.00047424e-06
1.000589e-06
1.00072116e-06
1.00086865e-06
1.00102664e-06
1.00118682e-06
1.00133746e-06
1.00146478e-06
1.00000049e-06
1.00000151e-06
1.00000263e-06
1.00000396e-06
1.00000563e-06
1.00000781e-06
1.0000107e-06
1.00001455e-06
1.00001969e-06
1.00002657e-06
1.00003574e-06
1.00004795e-06
1.00006412e-06
1.00008545e-06
1.00011343e-06
1.00014988e-06
1.00019701e-06
1.0002574e-06
1.00033385e-06
1.00042945e-06
1.00054716e-06
1.00068891e-06
1.00085556e-06
1.00104635e-06
1.00125666e-06
1.00147636e-06
1.00168899e-06
1.00187276e-06
1.00000049e-06
1.0000015e-06
1.00000261e-06
1.00000394e-06
1.00000562e-06
1.00000782e-06
1.00001076e-06
1.00001469e-06
1.00001998e-06
1.00002709e-06
1.00003666e-06
1.00004948e-06
1.00006662e-06
1.00008944e-06
1.00011968e-06
1.00015954e-06
1.00021174e-06
1.00027955e-06
1.00036675e-06
1.00047764e-06
1.0006167e-06
1.00078819e-06
1.00099573e-06
1.00124065e-06
1.00152024e-06
1.00182448e-06
1.00213162e-06
1.00240644e-06
1.00000047e-06
1.00000145e-06
1.00000253e-06
1.00000382e-06
1.00000547e-06
1.00000764e-06
1.00001053e-06
1.00001444e-06
1.00001973e-06
1.00002689e-06
1.00003658e-06
1.00004966e-06
1.00006728e-06
1.00009096e-06
1.00012265e-06
1.00016488e-06
1.00022086e-06
1.00029461e-06
1.00039103e-06
1.00051585e-06
1.00067572e-06
1.00087852e-06
1.00113246e-06
1.00144388e-06
1.00181567e-06
1.00224303e-06
1.00270191e-06
1.00313542e-06
1.00000044e-06
1.00000136e-06
1.00000238e-06
1.0000036e-06
1.00000516e-06
1.00000723e-06
1.00001001e-06
1.00001377e-06
1.00001889e-06
1.00002586e-06
1.00003534e-06
1.00004822e-06
1.00006572e-06
1.00008941e-06
1.00012141e-06
1.00016451e-06
1.00022232e-06
1.00029953e-06
1.00040215e-06
1.00053771e-06
1.00071595e-06
1.00094902e-06
1.00125163e-06
1.00164168e-06
1.00213702e-06
1.00274885e-06
1.00346397e-06
1.00419638e-06
1.0000004e-06
1.00000123e-06
1.00000216e-06
1.00000327e-06
1.0000047e-06
1.0000066e-06
1.00000916e-06
1.00001265e-06
1.00001741e-06
1.00002392e-06
1.00003283e-06
1.00004501e-06
1.00006164e-06
1.00008434e-06
1.00011524e-06
1.00015725e-06
1.00021422e-06
1.00029135e-06
1.00039555e-06
1.0005362e-06
1.00072613e-06
1.00098313e-06
1.00133211e-06
1.00180924e-06
1.00246623e-06
1.00336007e-06
1.00452262e-06
1.00584542e-06
1.00000035e-06
1.00000107e-06
1.00000187e-06
1.00000284e-06
1.00000409e-06
1.00000576e-06
1.00000801e-06
1.00001108e-06
1.00001529e-06
1.00002108e-06
1.00002903e-06
1.00003995e-06
1.00005494e-06
1.00007552e-06
1.00010374e-06
1.00014239e-06
1.00019532e-06
1.0002678e-06
1.00036721e-06
1.0005041e-06
1.00069403e-06
1.00096103e-06
1.00134371e-06
1.0019058e-06
1.00275451e-06
1.00406235e-06
1.00600215e-06
1.00845621e-06
1.00000028e-06
1.00000087e-06
1.00000152e-06
1.00000232e-06
1.00000334e-06
1.00000471e-06
1.00000656e-06
1.0000091e-06
1.00001259e-06
1.00001739e-06
1.00002401e-06
1.00003314e-06
1.00004573e-06
1.00006308e-06
1.00008699e-06
1.00011994e-06
1.00016538e-06
1.00022817e-06
1.00031531e-06
1.00043727e-06
1.0006106e-06
1.0008634e-06
1.00124677e-06
1.00185871e-06
1.00288768e-06
1.00468219e-06
1.00786959e-06
1.01201428e-06
1.00000021e-06
1.00000064e-06
1.00000112e-06
1.00000171e-06
1.00000247e-06
1.00000349e-06
1.00000487e-06
1.00000677e-06
1.00000937e-06
1.00001297e-06
1.00001795e-06
1.00002482e-06
1.00003433e-06
1.00004747e-06
1.00006564e-06
1.00009077e-06
1.00012558e-06
1.00017394e-06
1.00024151e-06
1.00033701e-06
1.00047475e-06
1.00068056e-06
1.00100554e-06
1.00155952e-06
1.00258576e-06
1.00456811e-06
1.00797945e-06
1.01787664e-06
1.0000002e-06
1.0000006e-06
1.00000102e-06
1.00000147e-06
1.00000197e-06
1.00000254e-06
1.00000319e-06
1.00000395e-06
1.00000484e-06
1.00000587e-06
1.00000706e-06
1.00000842e-06
1.00000998e-06
1.00001173e-06
1.00001368e-06
1.00001584e-06
1.00001819e-06
1.00002071e-06
1.00002338e-06
1.00002617e-06
1.00002901e-06
1.00003186e-06
1.00003465e-06
1.00003731e-06
1.00003977e-06
1.00004195e-06
1.00004378e-06
1.00004521e-06
1.0000002e-06
1.00000061e-06
1.00000104e-06
1.0000015e-06
1.00000201e-06
1.00000259e-06
1.00000326e-06
1.00000405e-06
1.00000496e-06
1.00000602e-06
1.00000725e-06
1.00000866e-06
1.00001028e-06
1.0000121e-06
1.00001413e-06
1.00001639e-06
1.00001885e-06
1.0000215e-06
1.0000243e-06
1.00002724e-06
1.00003024e-06
1.00003325e-06
1.00003621e-06
1.00003903e-06
1.00004164e-06
1.00004396e-06
1.00004591e-06
1.00004744e-06
1.00000021e-06
1.00000065e-06
1.0000011e-06
1.00000158e-06
1.00000213e-06
1.00000275e-06
1.00000347e-06
1.00000432e-06
1.00000531e-06
1.00000646e-06
1.0000078e-06
1.00000936e-06
1.00001113e-06
1.00001315e-06
1.00001542e-06
1.00001794e-06
1.0000207e-06
1.00002369e-06
1.00002687e-06
1.00003021e-06
1.00003364e-06
1.0000371e-06
1.00004051e-06
1.00004377e-06
1.00004679e-06
1.00004948e-06
1.00005176e-06
1.00005353e-06
1.00000024e-06
1.00000071e-06
1.00000121e-06
1.00000174e-06
1.00000235e-06
1.00000304e-06
1.00000386e-06
1.00000481e-06
1.00000594e-06
1.00000726e-06
1.00000881e-06
1.00001061e-06
1.00001268e-06
1.00001506e-06
1.00001774e-06
1.00002074e-06
1.00002405e-06
1.00002765e-06
1.00003152e-06
1.00003559e-06
1.0000398e-06
1.00004406e-06
1.00004828e-06
1.00005233e-06
1.00005611e-06
1.00005948e-06
1.00006233e-06
1.00006457e-06
1.00000027e-06
1.0000008e-06
1.00000136e-06
1.00000197e-06
1.00000266e-06
1.00000347e-06
1.00000441e-06
1.00000552e-06
1.00000685e-06
1.00000842e-06
1.00001027e-06
1.00001244e-06
1.00001496e-06
1.00001786e-06
1.00002116e-06
1.00002488e-06
1.00002901e-06
1.00003354e-06
1.00003843e-06
1.00004361e-06
1.000049e-06
1.00005449e-06
1.00005994e-06
1.00006521e-06
1.00007014e-06
1.00007455e-06
1.0000783e-06
1.00008125e-06
1.0000003e-06
1.00000092e-06
1.00000157e-06
1.00000227e-06
1.00000308e-06
1.00000402e-06
1.00000514e-06
1.00000647e-06
1.00000806e-06
1.00000997e-06
1.00001223e-06
1.0000149e-06
1.00001802e-06
1.00002164e-06
1.0000258e-06
1.00003051e-06
1.00003579e-06
1.00004161e-06
1.00004793e-06
1.00005468e-06
1.00006175e-06
1.00006898e-06
1.00007621e-06
1.00008323e-06
1.00008981e-06
1.00009574e-06
1.00010078e-06
1.00010475e-06
1.00000035e-06
1.00000107e-06
1.00000182e-06
1.00000265e-06
1.0000036e-06
1.00000471e-06
1.00000605e-06
1.00000766e-06
1.0000096e-06
1.00001193e-06
1.00001472e-06
1.00001804e-06
1.00002195e-06
1.00002653e-06
1.00003181e-06
1.00003785e-06
1.00004466e-06
1.00005223e-06
1.0000605e-06
1.00006939e-06
1.00007876e-06
1.00008841e-06
1.0000981e-06
1.00010756e-06
1.00011647e-06
1.00012451e-06
1.00013138e-06
1.0001368e-06
1.00000041e-06
1.00000124e-06
1.00000212e-06
1.00000309e-06
1.00000422e-06
1.00000555e-06
1.00000715e-06
1.0000091e-06
1.00001147e-06
1.00001434e-06
1.00001779e-06
1.00002194e-06
1.00002686e-06
1.00003266e-06
1.00003941e-06
1.00004717e-06
1.00005599e-06
1.00006586e-06
1.00007674e-06
1.0000885e-06
1.00010097e-06
1.00011391e-06
1.00012697e-06
1.00013978e-06
1.00015191e-06
1.0001629e-06
1.00017231e-06
1.00017975e-06
1.00000048e-06
1.00000145e-06
1.00000247e-06
1.00000361e-06
1.00000494e-06
1.00000653e-06
1.00000846e-06
1.00001082e-06
1.0000137e-06
1.00001723e-06
1.00002151e-06
1.00002668e-06
1.00003286e-06
1.0000402e-06
1.00004881e-06
1.00005879e-06
1.00007021e-06
1.00008309e-06
1.00009739e-06
1.00011296e-06
1.00012959e-06
1.00014694e-06
1.00016458e-06
1.00018196e-06
1.0001985e-06
1.00021356e-06
1.00022649e-06
1.00023674e-06
1.00000055e-06
1.00000168e-06
1.00000287e-06
1.00000421e-06
1.00000577e-06
1.00000766e-06
1.00000997e-06
1.00001281e-06
1.00001632e-06
1.00002063e-06
1.00002591e-06
1.00003233e-06
1.00004008e-06
1.00004933e-06
1.00006028e-06
1.00007307e-06
1.00008782e-06
1.00010459e-06
1.00012334e-06
1.00014392e-06
1.00016606e-06
1.00018932e-06
1.00021312e-06
1.00023673e-06
1.0002593e-06
1.00027994e-06
1.00029773e-06
1.00031187e-06
1.00000063e-06
1.00000193e-06
1.00000332e-06
1.00000487e-06
1.00000671e-06
1.00000894e-06
1.00001168e-06
1.00001509e-06
1.00001933e-06
1.00002457e-06
1.00003105e-06
1.00003898e-06
1.00004862e-06
1.00006024e-06
1.00007408e-06
1.00009039e-06
1.00010936e-06
1.00013109e-06
1.0001556e-06
1.00018272e-06
1.00021212e-06
1.00024324e-06
1.00027531e-06
1.00030733e-06
1.00033812e-06
1.0003664e-06
1.00039089e-06
1.0004104e-06
1.00000073e-06
1.00000221e-06
1.0000038e-06
1.00000559e-06
1.00000774e-06
1.00001035e-06
1.0000136e-06
1.00001765e-06
1.00002273e-06
1.00002907e-06
1.00003695e-06
1.00004668e-06
1.0000586e-06
1.00007307e-06
1.00009047e-06
1.00011114e-06
1.00013539e-06
1.00016341e-06
1.00019528e-06
1.00023086e-06
1.00026976e-06
1.00031128e-06
1.00035439e-06
1.00039774e-06
1.00043969e-06
1.00047844e-06
1.00051213e-06
1.00053906e-06
1.00000083e-06
1.00000251e-06
1.00000431e-06
1.00000637e-06
1.00000884e-06
1.00001188e-06
1.00001567e-06
1.00002046e-06
1.00002651e-06
1.0000341e-06
1.00004361e-06
1.00005544e-06
1.00007005e-06
1.00008795e-06
1.00010964e-06
1.00013565e-06
1.00016643e-06
1.00020233e-06
1.00024354e-06
1.00028997e-06
1.0003412e-06
1.00039638e-06
1.00045416e-06
1.00051271e-06
1.00056979e-06
1.00062281e-06
1.00066914e-06
1.0007063e-06
1.00000093e-06
1.00000282e-06
1.00000485e-06
1.00000719e-06
1.00001e-06
1.00001348e-06
1.00001789e-06
1.00002348e-06
1.00003059e-06
1.00003961e-06
1.00005099e-06
1.00006524e-06
1.00008299e-06
1.00010491e-06
1.00013172e-06
1.00016417e-06
1.00020292e-06
1.00024858e-06
1.00030149e-06
1.00036171e-06
1.00042881e-06
1.00050179e-06
1.00057893e-06
1.00065781e-06
1.00073529e-06
1.00080777e-06
1.00087144e-06
1.0009227e-06
1.00000103e-06
1.00000313e-06
1.0000054e-06
1.00000801e-06
1.00001118e-06
1.00001515e-06
1.00002021e-06
1.00002666e-06
1.00003492e-06
1.00004549e-06
1.00005892e-06
1.00007594e-06
1.0000973e-06
1.00012387e-06
1.00015668e-06
1.00019677e-06
1.00024512e-06
1.00030266e-06
1.00037006e-06
1.00044758e-06
1.00053491e-06
1.00063089e-06
1.00073342e-06
1.00083928e-06
1.00094422e-06
1.00104314e-06
1.00113056e-06
1.00120125e-06
1.00000113e-06
1.00000343e-06
1.00000593e-06
1.00000883e-06
1.00001238e-06
1.00001684e-06
1.00002254e-06
1.0000299e-06
1.0000394e-06
1.00005162e-06
1.0000673e-06
1.00008731e-06
1.00011265e-06
1.00014453e-06
1.00018428e-06
1.00023329e-06
1.00029298e-06
1.00036476e-06
1.00044979e-06
1.00054873e-06
1.00066149e-06
1.0007869e-06
1.00092241e-06
1.0010639e-06
1.00120559e-06
1.00134035e-06
1.00146031e-06
1.00155779e-06
1.00000122e-06
1.00000372e-06
1.00000644e-06
1.00000961e-06
1.00001351e-06
1.00001846e-06
1.00002483e-06
1.0000331e-06
1.00004385e-06
1.00005781e-06
1.00007586e-06
1.00009907e-06
1.00012873e-06
1.00016647e-06
1.00021404e-06
1.00027323e-06
1.00034601e-06
1.00043451e-06
1.0005406e-06
1.00066558e-06
1.00080986e-06
1.00097241e-06
1.00115033e-06
1.00133845e-06
1.0015291e-06
1.00171237e-06
1.00187688e-06
1.00201134e-06
1.0000013e-06
1.00000397e-06
1.00000689e-06
1.00001031e-06
1.00001454e-06
1.00001994e-06
1.00002695e-06
1.00003612e-06
1.00004811e-06
1.00006381e-06
1.00008426e-06
1.00011081e-06
1.00014511e-06
1.00018908e-06
1.00024491e-06
1.00031519e-06
1.00040287e-06
1.00051074e-06
1.0006414e-06
1.00079738e-06
1.00098e-06
1.00118868e-06
1.00142041e-06
1.001669e-06
1.00192452e-06
1.00217328e-06
1.00239893e-06
1.00258467e-06
1.00000137e-06
1.00000418e-06
1.00000726e-06
1.00001088e-06
1.0000154e-06
1.0000212e-06
1.00002879e-06
1.00003877e-06
1.00005193e-06
1.00006928e-06
1.00009208e-06
1.00012192e-06
1.00016079e-06
1.00021105e-06
1.00027552e-06
1.00035771e-06
1.00046143e-06
1.00059058e-06
1.00074938e-06
1.00094161e-06
1.00116984e-06
1.00143468e-06
1.00173357e-06
1.00205966e-06
1.00240055e-06
1.00273774e-06
1.0030477e-06
1.00330518e-06
1.00000141e-06
1.00000432e-06
1.00000751e-06
1.00001129e-06
1.00001602e-06
1.00002215e-06
1.0000302e-06
1.00004087e-06
1.00005504e-06
1.00007385e-06
1.00009876e-06
1.00013163e-06
1.0001748e-06
1.00023115e-06
1.00030433e-06
1.00039863e-06
1.00051887e-06
1.0006707e-06
1.00086033e-06
1.0010934e-06
1.00137441e-06
1.00170591e-06
1.00208687e-06
1.00251081e-06
1.00296329e-06
1.00342002e-06
1.00384741e-06
1.0042069e-06
1.00000143e-06
1.00000438e-06
1.00000762e-06
1.00001148e-06
1.00001635e-06
1.00002268e-06
1.00003105e-06
1.00004222e-06
1.00005715e-06
1.0000771e-06
1.00010373e-06
1.00013915e-06
1.00018608e-06
1.00024797e-06
1.00032915e-06
1.00043486e-06
1.00057153e-06
1.00074658e-06
1.000968e-06
1.00124458e-06
1.00158456e-06
1.00199297e-06
1.00247148e-06
1.00301668e-06
1.0036139e-06
1.00423292e-06
1.00482663e-06
1.00533512e-06
1.00000142e-06
1.00000434e-06
1.00000757e-06
1.00001143e-06
1.00001631e-06
1.00002271e-06
1.00003121e-06
1.00004263e-06
1.00005797e-06
1.00007863e-06
1.00010638e-06
1.0001436e-06
1.00019333e-06
1.00025954e-06
1.00034727e-06
1.00046286e-06
1.00061416e-06
1.0008106e-06
1.00106293e-06
1.00138329e-06
1.00178398e-06
1.00227623e-06
1.00286861e-06
1.00356219e-06
1.00434549e-06
1.0051862e-06
1.00602128e-06
1.0067563e-06
1.00000137e-06
1.0000042e-06
1.00000733e-06
1.00001109e-06
1.00001587e-06
1.00002216e-06
1.00003057e-06
1.00004192e-06
1.00005726e-06
1.00007804e-06
1.00010615e-06
1.00014411e-06
1.00019525e-06
1.00026394e-06
1.00035585e-06
1.0004783e-06
1.00064052e-06
1.000854e-06
1.00113267e-06
1.00149253e-06
1.00195164e-06
1.0025306e-06
1.00324911e-06
1.00411891e-06
1.00513885e-06
1.00628389e-06
1.00747914e-06
1.00857603e-06
1.00000129e-06
1.00000394e-06
1.00000689e-06
1.00001045e-06
1.00001499e-06
1.00002099e-06
1.00002905e-06
1.00003997e-06
1.00005482e-06
1.00007503e-06
1.00010254e-06
1.00013994e-06
1.0001907e-06
1.00025943e-06
1.00035224e-06
1.00047714e-06
1.00064457e-06
1.00086789e-06
1.00116401e-06
1.0015538e-06
1.00206335e-06
1.00272366e-06
1.00356915e-06
1.00463669e-06
1.00595322e-06
1.00751697e-06
1.00925995e-06
1.01096093e-06
1.00000117e-06
1.00000357e-06
1.00000626e-06
1.0000095e-06
1.00001365e-06
1.00001916e-06
1.0000266e-06
1.00003671e-06
1.00005052e-06
1.00006942e-06
1.00009526e-06
1.0001306e-06
1.00017887e-06
1.00024469e-06
1.0003343e-06
1.00045601e-06
1.00062093e-06
1.00084374e-06
1.00114388e-06
1.00154692e-06
1.00208668e-06
1.00280739e-06
1.00376574e-06
1.00503483e-06
1.00670338e-06
1.00883662e-06
1.01140768e-06
1.0141216e-06
1.00000101e-06
1.0000031e-06
1.00000542e-06
1.00000825e-06
1.00001188e-06
1.0000167e-06
1.00002324e-06
1.00003216e-06
1.00004438e-06
1.00006117e-06
1.00008424e-06
1.00011593e-06
1.00015943e-06
1.00021911e-06
1.00030089e-06
1.00041285e-06
1.00056594e-06
1.0007751e-06
1.0010608e-06
1.00145149e-06
1.00198739e-06
1.00272657e-06
1.0037542e-06
1.00519401e-06
1.00722249e-06
1.01006535e-06
1.01381932e-06
1.01807551e-06
1.00000082e-06
1.00000252e-06
1.00000442e-06
1.00000672e-06
1.0000097e-06
1.00001366e-06
1.00001904e-06
1.0000264e-06
1.00003652e-06
1.00005046e-06
1.00006968e-06
1.00009617e-06
1.00013268e-06
1.00018299e-06
1.00025229e-06
1.0003477e-06
1.00047905e-06
1.00066002e-06
1.00090986e-06
1.00125646e-06
1.00174166e-06
1.00243134e-06
1.00343415e-06
1.00493264e-06
1.00721824e-06
1.01070041e-06
1.01587372e-06
1.0216612e-06
1.00000061e-06
1.00000186e-06
1.00000326e-06
1.00000497e-06
1.00000718e-06
1.00001013e-06
1.00001414e-06
1.00001963e-06
1.0000272e-06
1.00003765e-06
1.00005209e-06
1.00007203e-06
1.0000996e-06
1.00013771e-06
1.00019036e-06
1.0002631e-06
1.00036367e-06
1.00050289e-06
1.00069624e-06
1.00096659e-06
1.00134937e-06
1.00190322e-06
1.00273237e-06
1.00403177e-06
1.00616108e-06
1.00964903e-06
1.0145194e-06
1.02732369e-06
1.00000031e-06
1.00000093e-06
1.00000158e-06
1.00000228e-06
1.00000306e-06
1.00000395e-06
1.00000497e-06
1.00000616e-06
1.00000754e-06
1.00000914e-06
1.000011e-06
1.00001312e-06
1.00001554e-06
1.00001827e-06
1.00002131e-06
1.00002467e-06
1.00002833e-06
1.00003226e-06
1.00003642e-06
1.00004076e-06
1.00004519e-06
1.00004963e-06
1.00005398e-06
1.00005812e-06
1.00006194e-06
1.00006533e-06
1.00006818e-06
1.00007041e-06
1.00000032e-06
1.00000095e-06
1.00000162e-06
1.00000233e-06
1.00000313e-06
1.00000403e-06
1.00000508e-06
1.0000063e-06
1.00000773e-06
1.00000938e-06
1.00001129e-06
1.0000135e-06
1.00001601e-06
1.00001884e-06
1.00002202e-06
1.00002552e-06
1.00002935e-06
1.00003348e-06
1.00003786e-06
1.00004242e-06
1.0000471e-06
1.0000518e-06
1.0000564e-06
1.0000608e-06
1.00006486e-06
1.00006847e-06
1.00007151e-06
1.00007388e-06
1.00000033e-06
1.00000101e-06
1.00000171e-06
1.00000247e-06
1.00000332e-06
1.00000429e-06
1.00000541e-06
1.00000673e-06
1.00000827e-06
1.00001007e-06
1.00001216e-06
1.00001457e-06
1.00001734e-06
1.00002048e-06
1.00002401e-06
1.00002794e-06
1.00003224e-06
1.0000369e-06
1.00004186e-06
1.00004705e-06
1.0000524e-06
1.00005779e-06
1.00006309e-06
1.00006817e-06
1.00007288e-06
1.00007707e-06
1.00008061e-06
1.00008338e-06
1.00000037e-06
1.00000111e-06
1.00000188e-06
1.00000272e-06
1.00000366e-06
1.00000474e-06
1.000006e-06
1.00000749e-06
1.00000924e-06
1.00001131e-06
1.00001372e-06
1.00001652e-06
1.00001975e-06
1.00002345e-06
1.00002763e-06
1.0000323e-06
1.00003746e-06
1.00004307e-06
1.00004909e-06
1.00005543e-06
1.00006199e-06
1.00006863e-06
1.00007519e-06
1.00008151e-06
1.00008739e-06
1.00009264e-06
1.00009708e-06
1.00010057e-06
1.00000041e-06
1.00000125e-06
1.00000212e-06
1.00000307e-06
1.00000415e-06
1.0000054e-06
1.00000687e-06
1.0000086e-06
1.00001067e-06
1.00001312e-06
1.000016e-06
1.00001938e-06
1.0000233e-06
1.00002782e-06
1.00003296e-06
1.00003875e-06
1.00004519e-06
1.00005224e-06
1.00005985e-06
1.00006792e-06
1.00007632e-06
1.00008487e-06
1.00009336e-06
1.00010157e-06
1.00010924e-06
1.00011612e-06
1.00012196e-06
1.00012655e-06
1.00000047e-06
1.00000143e-06
1.00000244e-06
1.00000354e-06
1.0000048e-06
1.00000626e-06
1.000008e-06
1.00001008e-06
1.00001256e-06
1.00001552e-06
1.00001905e-06
1.0000232e-06
1.00002807e-06
1.00003371e-06
1.00004018e-06
1.00004753e-06
1.00005574e-06
1.00006481e-06
1.00007466e-06
1.00008517e-06
1.00009617e-06
1.00010744e-06
1.0001187e-06
1.00012963e-06
1.00013989e-06
1.00014911e-06
1.00015697e-06
1.00016315e-06
1.00000055e-06
1.00000166e-06
1.00000283e-06
1.00000412e-06
1.0000056e-06
1.00000734e-06
1.00000942e-06
1.00001193e-06
1.00001495e-06
1.00001858e-06
1.00002293e-06
1.0000281e-06
1.00003419e-06
1.00004132e-06
1.00004955e-06
1.00005896e-06
1.00006956e-06
1.00008135e-06
1.00009423e-06
1.00010808e-06
1.00012267e-06
1.0001377e-06
1.00015279e-06
1.00016752e-06
1.0001814e-06
1.00019393e-06
1.00020463e-06
1.00021307e-06
1.00000064e-06
1.00000194e-06
1.0000033e-06
1.00000482e-06
1.00000657e-06
1.00000864e-06
1.00001114e-06
1.00001418e-06
1.00001786e-06
1.00002233e-06
1.00002772e-06
1.00003417e-06
1.00004184e-06
1.00005086e-06
1.00006137e-06
1.00007347e-06
1.00008721e-06
1.00010258e-06
1.00011952e-06
1.00013784e-06
1.00015727e-06
1.00017741e-06
1.00019776e-06
1.00021771e-06
1.0002366e-06
1.00025371e-06
1.00026837e-06
1.00027996e-06
1.00000074e-06
1.00000225e-06
1.00000385e-06
1.00000563e-06
1.0000077e-06
1.00001017e-06
1.00001318e-06
1.00001685e-06
1.00002134e-06
1.00002683e-06
1.0000335e-06
1.00004155e-06
1.00005118e-06
1.00006261e-06
1.00007602e-06
1.00009157e-06
1.00010936e-06
1.00012942e-06
1.00015168e-06
1.00017594e-06
1.00020184e-06
1.00022886e-06
1.00025633e-06
1.00028341e-06
1.00030917e-06
1.00033261e-06
1.00035276e-06
1.00036872e-06
1.00000086e-06
1.00000261e-06
1.00000447e-06
1.00000655e-06
1.00000899e-06
1.00001193e-06
1.00001553e-06
1.00001995e-06
1.00002541e-06
1.00003213e-06
1.00004036e-06
1.00005036e-06
1.00006242e-06
1.00007684e-06
1.00009389e-06
1.00011381e-06
1.00013678e-06
1.0001629e-06
1.0001921e-06
1.00022416e-06
1.00025864e-06
1.00029487e-06
1.00033194e-06
1.0003687e-06
1.00040386e-06
1.00043599e-06
1.0004637e-06
1.00048572e-06
1.00000099e-06
1.00000301e-06
1.00000516e-06
1.00000759e-06
1.00001045e-06
1.00001392e-06
1.0000182e-06
1.00002351e-06
1.0000301e-06
1.00003828e-06
1.00004836e-06
1.00006071e-06
1.00007573e-06
1.00009382e-06
1.00011539e-06
1.00014079e-06
1.00017033e-06
1.00020418e-06
1.00024235e-06
1.00028458e-06
1.00033037e-06
1.00037884e-06
1.00042879e-06
1.00047865e-06
1.00052659e-06
1.00057064e-06
1.00060877e-06
1.00063915e-06
1.00000113e-06
1.00000345e-06
1.00000592e-06
1.00000871e-06
1.00001205e-06
1.00001613e-06
1.00002118e-06
1.0000275e-06
1.0000354e-06
1.00004528e-06
1.00005755e-06
1.0000727e-06
1.00009127e-06
1.00011381e-06
1.00014091e-06
1.00017311e-06
1.00021087e-06
1.00025451e-06
1.00030415e-06
1.00035956e-06
1.00042014e-06
1.00048479e-06
1.00055193e-06
1.00061943e-06
1.00068475e-06
1.00074507e-06
1.00079752e-06
1.00083945e-06
1.00000129e-06
1.00000391e-06
1.00000672e-06
1.00000993e-06
1.00001377e-06
1.0000185e-06
1.00002441e-06
1.00003187e-06
1.00004129e-06
1.00005311e-06
1.00006792e-06
1.00008635e-06
1.00010911e-06
1.00013698e-06
1.00017077e-06
1.00021128e-06
1.00025921e-06
1.00031513e-06
1.00037931e-06
1.00045162e-06
1.0005314e-06
1.00061731e-06
1.00070727e-06
1.00079843e-06
1.00088728e-06
1.00096981e-06
1.00104191e-06
1.00109974e-06
1.00000144e-06
1.00000439e-06
1.00000756e-06
1.00001119e-06
1.00001557e-06
1.000021e-06
1.00002786e-06
1.00003658e-06
1.00004764e-06
1.00006169e-06
1.00007941e-06
1.00010161e-06
1.00012925e-06
1.0001634e-06
1.00020516e-06
1.00025569e-06
1.00031605e-06
1.00038715e-06
1.00046955e-06
1.00056332e-06
1.0006678e-06
1.00078142e-06
1.0009015e-06
1.00102425e-06