/*--------------------------------*- C++ -*----------------------------------*\
| =========                 |                                                 |
| \\      /  F ield         | foam-extend: Open Source CFD                    |
|  \\    /   O peration     | Version:     4.1                                |
|   \\  /    A nd           | Web:         http://www.foam-extend.org         |
|    \\/     M anipulation  |                                                 |
\*---------------------------------------------------------------------------*/
FoamFile
{
    version     2.0;
    format      ascii;
    class       volVectorField;
    location    "0.35";
    object      cellMotionU;
}
// * * * * * * * * * * * * * * * * * * * * * * * * * * * * * * * * * * * * * //

dimensions      [0 1 -1 0 0 0 0];

internalField   nonuniform List<vector> 
35840
(
(-1.28831431e-21 1.42634609e-09 -2.44989794e-22)
(-3.88078885e-21 4.29657245e-09 -7.37981691e-22)
(-6.56522619e-21 7.26856845e-09 -1.24845837e-21)
(-9.46123258e-21 1.04746893e-08 -1.7991619e-21)
(-1.26865056e-20 1.40451896e-08 -2.41247043e-21)
(-1.63585996e-20 1.81101703e-08 -3.11073346e-21)
(-2.05960021e-20 2.28007677e-08 -3.91647592e-21)
(-2.55183223e-20 2.82493607e-08 -4.85243332e-21)
(-3.12454353e-20 3.45886212e-08 -5.94138834e-21)
(-3.78954456e-20 4.19492569e-08 -7.20578258e-21)
(-4.55813553e-20 5.04563225e-08 -8.66708237e-21)
(-5.4406373e-20 6.0224024e-08 -1.03448858e-20)
(-6.4457866e-20 7.13490241e-08 -1.22557727e-20)
(-7.58000682e-20 8.39023706e-08 -1.44119173e-20)
(-8.84657906e-20 9.79203235e-08 -1.68195141e-20)
(-1.02447551e-19 1.13394541e-07 -1.94770917e-20)
(-1.17688719e-19 1.30262287e-07 -2.23738339e-20)
(-1.34075463e-19 1.48397525e-07 -2.54880518e-20)
(-1.51430419e-19 1.67603922e-07 -2.8785987e-20)
(-1.69509104e-19 1.87610894e-07 -3.2221137e-20)
(-1.88000078e-19 2.08073785e-07 -3.57342931e-20)
(-2.0652969e-19 2.28579138e-07 -3.92544499e-20)
(-2.24671969e-19 2.48655639e-07 -4.27006916e-20)
(-2.41963771e-19 2.67790874e-07 -4.59850719e-20)
(-2.57924706e-19 2.85453372e-07 -4.90164002e-20)
(-2.72080822e-19 3.01118804e-07 -5.17047358e-20)
(-2.8399046e-19 3.1429857e-07 -5.39662901e-20)
(-2.93270391e-19 3.24568702e-07 -5.5728378e-20)
(-3.8813833e-21 4.29723093e-09 -7.38094734e-22)
(-1.16891174e-20 1.29414419e-08 -2.22283215e-21)
(-1.97705089e-20 2.18884823e-08 -3.75959907e-21)
(-2.84885111e-20 3.15399991e-08 -5.41740729e-21)
(-3.81997725e-20 4.22906937e-08 -7.26406673e-21)
(-4.9260404e-20 5.45346854e-08 -9.36728041e-21)
(-6.20294547e-20 6.86693521e-08 -1.17953036e-20)
(-7.68696426e-20 8.50961333e-08 -1.46170804e-20)
(-9.41448999e-20 1.04217806e-07 -1.79017748e-20)
(-1.1421432e-19 1.26431778e-07 -2.17176163e-20)
(-1.37422164e-19 1.52119016e-07 -2.61299972e-20)
(-1.64083708e-19 1.81628378e-07 -3.1198779e-20)
(-1.9446694e-19 2.15256349e-07 -3.69748104e-20)
(-2.28770421e-19 2.53222533e-07 -4.34957171e-20)
(-2.6709804e-19 2.95641725e-07 -5.07811051e-20)
(-3.09431915e-19 3.42493927e-07 -5.88274133e-20)
(-3.55605248e-19 3.93594323e-07 -6.76027628e-20)
(-4.05277492e-19 4.48565836e-07 -7.70422516e-20)
(-4.57914689e-19 5.06817388e-07 -8.70442353e-20)
(-5.12778083e-19 5.67531345e-07 -9.74681875e-20)
(-5.68924107e-19 6.29663526e-07 -1.08134723e-19)
(-6.25218386e-19 6.91958734e-07 -1.18828283e-19)
(-6.80365516e-19 7.52983711e-07 -1.29302818e-19)
(-7.32954977e-19 8.11177943e-07 -1.39290516e-19)
(-7.81521855e-19 8.64920825e-07 -1.48513345e-19)
(-8.24619165e-19 9.12611643e-07 -1.56696767e-19)
(-8.60896882e-19 9.52756968e-07 -1.63584724e-19)
(-8.89181647e-19 9.8405879e-07 -1.68954728e-19)
(-6.56741943e-21 7.27099833e-09 -1.24887544e-21)
(-1.97740968e-20 2.18924579e-08 -3.76028135e-21)
(-3.34409236e-20 3.70231003e-08 -6.35917163e-21)
(-4.81909235e-20 5.33523809e-08 -9.16400613e-21)
(-6.46361144e-20 7.15576224e-08 -1.22911461e-20)
(-8.3388144e-20 9.23157549e-08 -1.58568733e-20)
(-1.05064865e-19 1.16310582e-07 -1.99786369e-20)
(-1.30292127e-19 1.44234755e-07 -2.47753899e-20)
(-1.59700044e-19 1.76785625e-07 -3.03668735e-20)
(-1.93913009e-19 2.14654177e-07 -3.68717137e-20)
(-2.33532833e-19 2.58506354e-07 -4.44042084e-20)
(-2.79114583e-19 3.08956296e-07 -5.30697275e-20)
(-3.31135049e-19 3.66531433e-07 -6.29587136e-20)
(-3.89954308e-19 4.31629947e-07 -7.41393722e-20)
(-4.55771575e-19 5.04471915e-07 -8.66492818e-20)
(-5.28577427e-19 5.85046464e-07 -1.0048632e-19)
(-6.08105488e-19 6.73058341e-07 -1.15599499e-19)
(-6.937877e-19 7.67878469e-07 -1.31880491e-19)
(-7.8471819e-19 8.68504028e-07 -1.49156799e-19)
(-8.79631303e-19 9.7353422e-07 -1.67187636e-19)
(-9.76899424e-19 1.08116792e-06 -1.85663557e-19)
(-1.07455548e-18 1.18922865e-06 -2.04210802e-19)
(-1.17034353e-18 1.29522052e-06 -2.2240094e-19)
(-1.26179829e-18 1.39641631e-06 -2.39766013e-19)
(-1.34635153e-18 1.48997508e-06 -2.55818744e-19)
(-1.42145968e-18 1.5730833e-06 -2.70076736e-19)
(-1.48474378e-18 1.6431096e-06 -2.82088987e-19)
(-1.53413062e-18 1.69776075e-06 -2.91462592e-19)
(-9.46575841e-21 1.04797046e-08 -1.80002253e-21)
(-2.84978415e-20 3.15503405e-08 -5.41918157e-21)
(-4.81980361e-20 5.33602668e-08 -9.16535867e-21)
(-6.94842027e-20 7.69252297e-08 -1.32130692e-20)
(-9.32589033e-20 1.03244103e-07 -1.77339096e-20)
(-1.20426465e-19 1.33317731e-07 -2.28997962e-20)
(-1.51903936e-19 1.68161033e-07 -2.88850426e-20)
(-1.88624898e-19 2.08807208e-07 -3.58670764e-20)
(-2.31535012e-19 2.56302776e-07 -4.40255825e-20)
(-2.81578159e-19 3.11692216e-07 -5.35398573e-20)
(-3.39672158e-19 3.75991059e-07 -6.45841797e-20)
(-4.06673268e-19 4.50146579e-07 -7.73210503e-20)
(-4.83329198e-19 5.34985768e-07 -9.18922475e-20)
(-5.70221107e-19 6.31151147e-07 -1.08407796e-19)
(-6.67696174e-19 7.3902616e-07 -1.2693315e-19)
(-7.75793673e-19 8.5865341e-07 -1.47475156e-19)
(-8.94169132e-19 9.89650808e-07 -1.6996767e-19)
(-1.02202278e-18 1.13113249e-06 -1.94258005e-19)
(-1.15804002e-18 1.28164307e-06 -2.20095698e-19)
(-1.3003528e-18 1.43911503e-06 -2.47125257e-19)
(-1.44653091e-18 1.6008592e-06 -2.74884617e-19)
(-1.59361142e-18 1.76359744e-06 -3.02810846e-19)
(-1.73817223e-18 1.92354407e-06 -3.30254203e-19)
(-1.8764518e-18 2.0765383e-06 -3.56500946e-19)
(-2.0045123e-18 2.21822472e-06 -3.8080432e-19)
(-2.11843764e-18 2.34427221e-06 -4.02422095e-19)
(-2.21455235e-18 2.45061593e-06 -4.20657995e-19)
(-2.28964303e-18 2.5337021e-06 -4.34903551e-19)
(-1.26939434e-20 1.40534338e-08 -2.41388481e-21)
(-3.82165316e-20 4.23092738e-08 -7.26725363e-21)
(-6.46530736e-20 7.15764312e-08 -1.2294371e-20)
(-9.32697814e-20 1.03256172e-07 -1.77359781e-20)
(-1.25314391e-19 1.38729381e-07 -2.38292864e-20)
(-1.62042092e-19 1.79385193e-07 -3.08128989e-20)
(-2.0473287e-19 2.26640166e-07 -3.89300967e-20)
(-2.5469887e-19 2.81946388e-07 -4.84302251e-20)
(-3.13280141e-19 3.46786736e-07 -5.95678676e-20)
(-3.81827071e-19 4.22655385e-07 -7.25994863e-20)
(-4.6166788e-19 5.11021782e-07 -8.77772186e-20)
(-5.54059794e-19 6.13276571e-07 -1.05339571e-19)
(-6.60123132e-19 7.30658621e-07 -1.25498869e-19)
(-7.80758583e-19 8.6416348e-07 -1.48425515e-19)
(-9.16549485e-19 1.01443527e-06 -1.74229414e-19)
(-1.06765292e-18 1.18164625e-06 -2.02939295e-19)
(-1.23368588e-18 1.36537098e-06 -2.34481123e-19)
(-1.41361537e-18 1.56446491e-06 -2.68657308e-19)
(-1.60566385e-18 1.77695995e-06 -3.05128868e-19)
(-1.80724336e-18 1.99999179e-06 -3.43403084e-19)
(-2.01493246e-18 2.22977464e-06 -3.82829329e-19)
(-2.22450936e-18 2.46163801e-06 -4.22605578e-19)
(-2.43105129e-18 2.69013676e-06 -4.61797464e-19)
(-2.62910479e-18 2.90923943e-06 -4.99370752e-19)
(-2.81292381e-18 3.11259163e-06 -5.34236564e-19)
(-2.97676356e-18 3.2938408e-06 -5.65307051e-19)
(-3.11520889e-18 3.44699921e-06 -5.91557469e-19)
(-3.22350877e-18 3.56681362e-06 -6.12089285e-19)
(-1.63694608e-20 1.81222119e-08 -3.1127988e-21)
(-4.92861115e-20 5.45631941e-08 -9.37216887e-21)
(-8.34174802e-20 9.23483005e-08 -1.58624517e-20)
(-1.20451751e-19 1.33345794e-07 -2.29046043e-20)
(-1.62057459e-19 1.79402254e-07 -3.08158209e-20)
(-2.09921829e-19 2.32384921e-07 -3.99168068e-20)
(-2.65777424e-19 2.94211142e-07 -5.05368275e-20)
(-3.31415388e-19 3.66862979e-07 -6.30162024e-20)
(-4.0868292e-19 4.52384336e-07 -7.77057944e-20)
(-4.99462451e-19 5.52857844e-07 -9.49630144e-20)
(-6.05630066e-19 6.7035877e-07 -1.15143876e-19)
(-7.28990809e-19 8.06883351e-07 -1.38590651e-19)
(-8.71189185e-19 9.64249714e-07 -1.65614812e-19)
(-1.03359452e-18 1.14397103e-06 -1.96475211e-19)
(-1.21716295e-18 1.34710281e-06 -2.31351832e-19)
(-1.42228059e-18 1.5740696e-06 -2.70316016e-19)
(-1.64859612e-18 1.82447991e-06 -3.13298725e-19)
(-1.89485508e-18 2.09694311e-06 -3.60059198e-19)
(-2.15875195e-18 2.38890623e-06 -4.10157098e-19)
(-2.43682004e-18 2.69653246e-06 -4.62931907e-19)
(-2.72438085e-18 3.01464545e-06 -5.17493699e-19)
(-3.01557404e-18 3.33676277e-06 -5.72729259e-19)
(-3.30348535e-18 3.6552375e-06 -6.27326752e-19)
(-3.58038166e-18 3.96151832e-06 -6.79820628e-19)
(-3.83805104e-18 4.24652538e-06 -7.28656226e-19)
(-4.06823104e-18 4.50112375e-06 -7.72270867e-19)
(-4.26309414e-18 4.71665994e-06 -8.09185471e-19)
(-4.41574677e-18 4.88551324e-06 -8.38098487e-19)
(-2.061077e-20 2.28171447e-08 -3.91928409e-21)
(-6.20656953e-20 6.8709552e-08 -1.18021949e-20)
(-1.05109494e-19 1.16360107e-07 -1.99871232e-20)
(-1.51947883e-19 1.6820982e-07 -2.88933991e-20)
(-2.0476905e-19 2.26680341e-07 -3.89369759e-20)
(-2.65799304e-19 2.94235445e-07 -5.05409877e-20)
(-3.37343067e-19 3.73425198e-07 -6.41433204e-20)
(-4.21805534e-19 4.66910964e-07 -8.02008802e-20)
(-5.21694304e-19 5.77467087e-07 -9.9189851e-20)
(-6.39596324e-19 7.0795526e-07 -1.21601246e-19)
(-7.78126669e-19 8.61267717e-07 -1.47931095e-19)
(-9.39845113e-19 1.04023481e-06 -1.78664498e-19)
(-1.12713729e-18 1.24749344e-06 -2.14252952e-19)
(-1.34205875e-18 1.48531453e-06 -2.5508464e-19)
(-1.58614313e-18 1.75539085e-06 -3.01447931e-19)
(-1.86017944e-18 2.05859088e-06 -3.53489082e-19)
(-2.16396887e-18 2.39469008e-06 -4.11166153e-19)
(-2.49607741e-18 2.76209772e-06 -4.74202258e-19)
(-2.85360721e-18 3.15760445e-06 -5.42042547e-19)
(-3.23201547e-18 3.5761826e-06 -6.138204e-19)
(-3.62501408e-18 4.01087557e-06 -6.88339102e-19)
(-4.02458335e-18 4.4528136e-06 -7.64075284e-19)
(-4.42112903e-18 4.89138745e-06 -8.39209502e-19)
(-4.80380034e-18 5.31460023e-06 -9.11687175e-19)
(-5.16096971e-18 5.70959764e-06 -9.79309803e-19)
(-5.48085243e-18 6.06335288e-06 -1.03985219e-18)
(-5.75222084e-18 6.36345565e-06 -1.09119695e-18)
(-5.9651464e-18 6.59893227e-06 -1.1314738e-18)
(-2.55373633e-20 2.82704817e-08 -4.85605396e-21)
(-7.69181333e-20 8.51499339e-08 -1.46263008e-20)
(-1.30356036e-19 1.44305687e-07 -2.47875419e-20)
(-1.88693736e-19 2.08883634e-07 -3.58801653e-20)
(-2.54763907e-19 2.82018611e-07 -4.84425908e-20)
(-3.31468672e-19 3.6692216e-07 -6.30263332e-20)
(-4.21837955e-19 4.66946976e-07 -8.02070441e-20)
(-5.29067158e-19 5.85628467e-07 -1.00591606e-19)
(-6.56526775e-19 7.26695217e-07 -1.2481987e-19)
(-8.07738889e-19 8.94042787e-07 -1.53560073e-19)
(-9.86316589e-19 1.09166648e-06 -1.87497181e-19)
(-1.19585906e-18 1.3235451e-06 -2.27312789e-19)
(-1.43979678e-18 1.59346962e-06 -2.73655538e-19)
(-1.7211827e-18 1.90481207e-06 -3.2710126e-19)
(-2.0424289e-18 2.26023449e-06 -3.88102846e-19)
(-2.40499385e-18 2.66134328e-06 -4.5693082e-19)
(-2.80903246e-18 3.10830266e-06 -5.33607021e-19)
(-3.25303028e-18 3.59943077e-06 -6.1783553e-19)
(-3.73345316e-18 4.13081299e-06 -7.08936857e-19)
(-4.24445405e-18 4.69597853e-06 -8.05793335e-19)
(-4.77768669e-18 5.28569511e-06 -9.0681514e-19)
(-5.32227893e-18 5.88793993e-06 -1.00993682e-18)
(-5.86501372e-18 6.48810015e-06 -1.11265322e-18)
(-6.39075134e-18 7.06943962e-06 -1.21210084e-18)
(-6.88310039e-18 7.6138405e-06 -1.30518554e-18)
(-7.32531089e-18 8.10279009e-06 -1.38875141e-18)
(-7.70132361e-18 8.51854023e-06 -1.45977787e-18)
(-7.99687473e-18 8.84532783e-06 -1.51558619e-18)
(-3.12684797e-20 3.46141903e-08 -5.94577001e-21)
(-9.42070002e-20 1.04286721e-07 -1.79135825e-20)
(-1.59789242e-19 1.76884631e-07 -3.03838333e-20)
(-2.31638839e-19 2.56418042e-07 -4.40453233e-20)
(-3.13387057e-19 3.46905452e-07 -5.95881949e-20)
(-4.08783211e-19 4.52495704e-07 -7.77248611e-20)
(-5.21775837e-19 5.77557632e-07 -9.92053507e-20)
(-6.56575648e-19 7.26749495e-07 -1.24829161e-19)
(-8.1767888e-19 9.05044554e-07 -1.55449539e-19)
(-1.00984544e-18 1.1177066e-06 -1.91969132e-19)
(-1.23803154e-18 1.37021509e-06 -2.35326926e-19)
(-1.5072611e-18 1.66812274e-06 -2.8647352e-19)
(-1.82242842e-18 2.01683693e-06 -3.46333289e-19)
(-2.18802238e-18 2.42131485e-06 -4.15751677e-19)
(-2.60776978e-18 2.88566915e-06 -4.95427168e-19)
(-3.08420052e-18 3.41268762e-06 -5.85828615e-19)
(-3.61814895e-18 4.00328258e-06 -6.87100719e-19)
(-4.20821773e-18 4.65589892e-06 -7.98962862e-19)
(-4.85024621e-18 5.36592749e-06 -9.20609391e-19)
(-5.53684239e-18 6.12518861e-06 -1.05062269e-18)
(-6.25705245e-18 6.92156761e-06 -1.18691305e-18)
(-6.99625012e-18 7.73889314e-06 -1.32670078e-18)
(-7.73632507e-18 8.55714564e-06 -1.46655512e-18)
(-8.45623082e-18 9.35306283e-06 -1.60250071e-18)
(-9.13291538e-18 1.0101168e-05 -1.73019535e-18)
(-9.74260451e-18 1.0775188e-05 -1.84517229e-18)
(-1.02623442e-17 1.1349757e-05 -1.94312919e-18)
(-1.06716484e-17 1.18022376e-05 -2.02023459e-18)
(-3.79195871e-20 4.19760602e-08 -7.21037249e-21)
(-1.1428862e-19 1.26514256e-07 -2.17317425e-20)
(-1.94037345e-19 2.14792175e-07 -3.6895353e-20)
(-2.81734187e-19 3.11865396e-07 -5.35695211e-20)
(-3.81997097e-19 4.22844123e-07 -7.26318101e-20)
(-4.99636632e-19 5.53051199e-07 -9.49961265e-20)
(-6.39755685e-19 7.08132176e-07 -1.21631539e-19)
(-8.07863347e-19 8.94180978e-07 -1.53583729e-19)
(-1.00991925e-18 1.11778856e-06 -1.91983159e-19)
(-1.2523118e-18 1.38601838e-06 -2.38040586e-19)
(-1.54179383e-18 1.70633483e-06 -2.93034393e-19)
(-1.88532853e-18 2.08643242e-06 -3.58280769e-19)
(-2.28984453e-18 2.53396475e-06 -4.35086557e-19)
(-2.76187731e-18 3.05614804e-06 -5.24680503e-19)
(-3.30709257e-18 3.65923447e-06 -6.28122153e-19)
(-3.92968844e-18 4.34785204e-06 -7.46188023e-19)
(-4.63169221e-18 5.12422809e-06 -8.79238216e-19)
(-5.41218238e-18 5.98733068e-06 -1.02706969e-18)
(-6.26648999e-18 6.93198706e-06 -1.18876669e-18)
(-7.18546133e-18 7.94806998e-06 -1.36256423e-18)
(-8.15489097e-18 9.01987186e-06 -1.54574531e-18)
(-9.15525186e-18 1.0125807e-05 -1.73459572e-18)
(-1.01618518e-17 1.12385844e-05 -1.92444002e-18)
(-1.11455228e-17 1.23259692e-05 -2.10977773e-18)
(-1.20738986e-17 1.33521942e-05 -2.28452846e-18)
(-1.29132528e-17 1.42799899e-05 -2.44237896e-18)
(-1.36307674e-17 1.50730916e-05 -2.57720646e-18)
(-1.41969987e-17 1.56989639e-05 -2.68353429e-18)
(-4.55939553e-20 5.0470372e-08 -8.66947697e-21)
(-1.37495409e-19 1.52200394e-07 -2.61439209e-20)
(-2.33711553e-19 2.58704661e-07 -4.44381848e-20)
(-3.39911067e-19 3.76256137e-07 -6.46295976e-20)
(-4.61933008e-19 5.11315989e-07 -8.78276184e-20)
(-6.05925516e-19 6.70686599e-07 -1.15200037e-19)
(-7.7841514e-19 8.61587832e-07 -1.47985924e-19)
(-9.86561266e-19 1.09193808e-06 -1.87543681e-19)
(-1.2382218e-18 1.37042634e-06 -2.35363078e-19)
(-1.54190595e-18 1.70645935e-06 -2.93055693e-19)
(-1.90675313e-18 2.11013769e-06 -3.62350122e-19)
(-2.34234259e-18 2.59204478e-06 -4.45054842e-19)
(-2.85840552e-18 3.16292839e-06 -5.43002377e-19)
(-3.46436334e-18 3.83319034e-06 -6.57960361e-19)
(-4.16870271e-18 4.61219627e-06 -7.91511663e-19)
(-4.97816228e-18 5.50737772e-06 -9.44899149e-19)
(-5.89675266e-18 6.52315059e-06 -1.11883959e-18)
(-6.92464096e-18 7.65968383e-06 -1.31331325e-18)
(-8.05696335e-18 8.9115888e-06 -1.52734183e-18)
(-9.28267877e-18 1.02666536e-05 -1.75877695e-18)
(-1.05836208e-17 1.1704796e-05 -2.00412907e-18)
(-1.19339414e-17 1.31974486e-05 -2.25847349e-18)
(-1.3300155e-17 1.47076065e-05 -2.51547122e-18)
(-1.46419664e-17 1.61907419e-05 -2.76753762e-18)
(-1.59140003e-17 1.75967134e-05 -3.00617698e-18)
(-1.70684226e-17 1.88726626e-05 -3.22247792e-18)
(-1.8058279e-17 1.99667025e-05 -3.40773369e-18)
(-1.88411976e-17 2.08320098e-05 -3.55412065e-18)
(-5.43150708e-20 6.01230872e-08 -1.03275236e-20)
(-1.64097832e-19 1.81644389e-07 -3.12014579e-20)
(-2.7939933e-19 3.09272092e-07 -5.31238574e-20)
(-4.07053951e-19 4.50568766e-07 -7.73934154e-20)
(-5.54454808e-19 6.13714789e-07 -1.05414655e-19)
(-7.29494657e-19 8.07442145e-07 -1.38686415e-19)
(-9.40357176e-19 1.04080278e-06 -1.78761814e-19)
(-1.19629368e-18 1.32402741e-06 -2.27395376e-19)
(-1.5076439e-18 1.66854764e-06 -2.86546242e-19)
(-1.88562157e-18 2.08675784e-06 -3.58336422e-19)
(-2.34252227e-18 2.59224438e-06 -4.45088954e-19)
(-2.89141242e-18 3.19944119e-06 -5.492671e-19)
(-3.54585077e-18 3.92332181e-06 -6.73419354e-19)
(-4.31928148e-18 4.77872898e-06 -8.20061822e-19)
(-5.22424354e-18 5.77950194e-06 -9.91525708e-19)
(-6.27127056e-18 6.93726224e-06 -1.18974652e-18)
(-7.46754594e-18 8.25992961e-06 -1.41600807e-18)
(-8.81532654e-18 9.74998213e-06 -1.67064489e-18)
(-1.0310197e-17 1.14025288e-05 -1.95271616e-18)
(-1.19393099e-17 1.3203366e-05 -2.25968207e-18)
(-1.36798345e-17 1.51272624e-05 -2.58712546e-18)
(-1.54979046e-17 1.71367959e-05 -2.92857405e-18)
(-1.73483957e-17 1.9182105e-05 -3.27548332e-18)
(-1.91758471e-17 2.12019056e-05 -3.61743538e-18)
(-2.09167564e-17 2.31260253e-05 -3.9425899e-18)
(-2.25032942e-17 2.4879507e-05 -4.2383881e-18)
(-2.38682179e-17 2.63880392e-05 -4.49246134e-18)
(-2.49504528e-17 2.75841249e-05 -4.69364291e-18)
(-6.44804679e-20 7.13742065e-08 -1.22600681e-20)
(-1.94624153e-19 2.15430849e-07 -3.70046955e-20)
(-3.314305e-19 3.66859248e-07 -6.30148777e-20)
(-4.83581316e-19 5.35265897e-07 -9.19401689e-20)
(-6.60617824e-19 7.3120747e-07 -1.25592886e-19)
(-8.72083948e-19 9.65241547e-07 -1.65784859e-19)
(-1.12805836e-18 1.24851458e-06 -2.14427978e-19)
(-1.44050298e-18 1.59425315e-06 -2.73789702e-19)
(-1.82314653e-18 2.01763375e-06 -3.46469678e-19)
(-2.29043501e-18 2.53462037e-06 -4.35198666e-19)
(-2.85889257e-18 3.16346935e-06 -5.43094808e-19)
(-3.54613262e-18 3.9236351e-06 -6.73472816e-19)
(-4.37091452e-18 4.83583321e-06 -8.2985093e-19)
(-5.35220929e-18 5.92100888e-06 -1.01576915e-18)
(-6.50831201e-18 7.19935791e-06 -1.23461592e-18)
(-7.85532362e-18 8.68865161e-06 -1.48933579e-18)
(-9.40534942e-18 1.0402249e-05 -1.78208494e-18)
(-1.11643164e-17 1.23466871e-05 -2.11381826e-18)
(-1.31294329e-17 1.45188761e-05 -2.48381502e-18)
(-1.52865245e-17 1.69031542e-05 -2.88919035e-18)
(-1.76075412e-17 1.94685322e-05 -3.32445092e-18)
(-2.00486724e-17 2.21666067e-05 -3.78117804e-18)
(-2.25495815e-17 2.4930711e-05 -4.2479321e-18)
(-2.5034285e-17 2.76768829e-05 -4.71046945e-18)
(-2.74141095e-17 3.03071301e-05 -5.15233989e-18)
(-2.95929059e-17 3.27151922e-05 -5.55588127e-18)
(-3.14742737e-17 3.4794525e-05 -5.90354902e-18)
(-3.29700102e-17 3.64476407e-05 -6.17942754e-18)
(-7.58435194e-20 8.39506788e-08 -1.44201774e-20)
(-2.28920932e-19 2.53389759e-07 -4.35243294e-20)
(-3.90223081e-19 4.31928466e-07 -7.41904646e-20)
(-5.70621434e-19 6.31595638e-07 -1.0848389e-19)
(-7.8148332e-19 8.64967351e-07 -1.48563261e-19)
(-1.03450385e-18 1.14497955e-06 -1.96648027e-19)
(-1.34272074e-18 1.48604974e-06 -2.55210438e-19)
(-1.72211634e-18 1.90584828e-06 -3.27278583e-19)
(-2.18939992e-18 2.42284258e-06 -4.16013242e-19)
(-2.76292763e-18 3.05731415e-06 -5.24879848e-19)
(-3.46542282e-18 3.83436669e-06 -6.58161336e-19)
(-4.32003188e-18 4.77956313e-06 -8.20204073e-19)
(-5.35267633e-18 5.9215283e-06 -1.0158576e-18)
(-6.58972641e-18 7.28937898e-06 -1.25002511e-18)
(-8.05760627e-18 8.91229126e-06 -1.5275791e-18)
(-9.78043057e-18 1.08168926e-05 -1.85290414e-18)
(-1.17777325e-17 1.30247549e-05 -2.22945902e-18)
(-1.40615365e-17 1.55491625e-05 -2.65922029e-18)
(-1.66326771e-17 1.83910451e-05 -3.14199425e-18)
(-1.94768333e-17 2.15345932e-05 -3.67469139e-18)
(-2.25605885e-17 2.49429001e-05 -4.25062871e-18)
(-2.58281829e-17 2.85543665e-05 -4.85898859e-18)
(-2.91997276e-17 3.22807221e-05 -5.48457665e-18)
(-3.25717342e-17 3.60076051e-05 -6.10802602e-18)
(-3.58207488e-17 3.95985768e-05 -6.70657083e-18)
(-3.88105652e-17 4.29030936e-05 -7.25544074e-18)
(-4.14028188e-17 4.57682177e-05 -7.72980314e-18)
(-4.34698335e-17 4.80528199e-05 -8.10702379e-18)
(-8.85107894e-20 9.79704003e-08 -1.68280686e-20)
(-2.67239193e-19 2.9579876e-07 -5.08079388e-20)
(-4.56020205e-19 5.04748426e-07 -8.66965453e-20)
(-6.68075073e-19 7.39447368e-07 -1.27005172e-19)
(-9.17109781e-19 1.01505778e-06 -1.74335907e-19)
(-1.21787982e-18 1.34789919e-06 -2.31488066e-19)
(-1.58699156e-18 1.75633348e-06 -3.01609131e-19)
(-2.04371452e-18 2.26166159e-06 -3.88347037e-19)
(-2.60872416e-18 2.88673077e-06 -4.95608414e-19)
(-3.3086037e-18 3.66091299e-06 -6.28408799e-19)
(-4.17097672e-18 4.61471932e-06 -7.91942826e-19)
(-5.22573317e-18 5.78115794e-06 -9.91807891e-19)
(-6.50962336e-18 7.20081594e-06 -1.23486405e-18)
(-8.05816673e-18 8.91291651e-06 -1.52768498e-18)
(-9.90946185e-18 1.09595371e-05 -1.87726211e-18)
(-1.20988595e-17 1.33797274e-05 -2.28997734e-18)
(-1.46567907e-17 1.62071136e-05 -2.77117458e-18)
(-1.76050403e-17 1.94657824e-05 -3.32444497e-18)
(-2.09513077e-17 2.31642694e-05 -3.95060632e-18)
(-2.46834766e-17 2.72892205e-05 -4.6466561e-18)
(-2.87634633e-17 3.17985859e-05 -5.40468812e-18)
(-3.31217991e-17 3.66156242e-05 -6.21100016e-18)
(-3.76540375e-17 4.16249232e-05 -7.04559731e-18)
(-4.222031e-17 4.66719048e-05 -7.88232069e-18)
(-4.66494389e-17 5.15673693e-05 -8.6898171e-18)
(-5.07486835e-17 5.60982695e-05 -9.43347478e-18)
(-5.43191889e-17 6.0044791e-05 -1.00782531e-17)
(-5.71756071e-17 6.32020441e-05 -1.05920673e-17)
(-1.02489539e-19 1.13441352e-07 -1.94850739e-20)
(-3.09560531e-19 3.4263729e-07 -5.88518636e-20)
(-5.28801028e-19 5.85295631e-07 -1.00528826e-19)
(-7.76128629e-19 8.59026538e-07 -1.47538825e-19)
(-1.06812263e-18 1.18216932e-06 -2.03028569e-19)
(-1.42289679e-18 1.57475576e-06 -2.70433115e-19)
(-1.86097021e-18 2.05947137e-06 -3.53639317e-19)
(-2.4060505e-18 2.66251941e-06 -4.57131506e-19)
(-3.08551532e-18 3.41415102e-06 -5.86078218e-19)
(-3.93181273e-18 4.35021263e-06 -7.46591063e-19)
(-4.97957299e-18 5.50895131e-06 -9.45166766e-19)
(-6.27350384e-18 6.93974719e-06 -1.19016907e-18)
(-7.85856599e-18 8.69225257e-06 -1.48994874e-18)
(-9.78172199e-18 1.08183352e-05 -1.85314758e-18)
(-1.20996263e-17 1.33805849e-05 -2.29012121e-18)
(-1.48624344e-17 1.64344241e-05 -2.80983979e-18)
(-1.81160463e-17 2.00305936e-05 -3.42027562e-18)
(-2.18975738e-17 2.42101426e-05 -4.12751729e-18)
(-2.62265425e-17 2.89947014e-05 -4.93410875e-18)
(-3.10972915e-17 3.43780715e-05 -5.83765964e-18)
(-3.6469317e-17 4.03155415e-05 -6.8291498e-18)
(-4.22585413e-17 4.67142257e-05 -7.89150978e-18)
(-4.83306668e-17 5.34257103e-05 -8.99870743e-18)
(-5.4498595e-17 6.02431982e-05 -1.01156874e-17)
(-6.05263188e-17 6.69058126e-05 -1.11995302e-17)
(-6.61415902e-17 7.31126043e-05 -1.22021036e-17)
(-7.10582101e-17 7.85471967e-05 -1.30741706e-17)
(-7.50060974e-17 8.29110278e-05 -1.37704603e-17)
(-1.17726628e-19 1.30304668e-07 -2.23810406e-20)
(-3.55720418e-19 3.93723062e-07 -6.76246568e-20)
(-6.0830394e-19 6.73280134e-07 -1.15637223e-19)
(-8.94463109e-19 9.89979314e-07 -1.70023548e-19)
(-1.23409285e-18 1.36582573e-06 -2.3455847e-19)
(-1.64913661e-18 1.82508391e-06 -3.13401429e-19)
(-2.16467589e-18 2.3954803e-06 -4.1130047e-19)
(-2.80996099e-18 3.10934043e-06 -5.33783358e-19)
(-3.61935718e-18 4.00463279e-06 -6.87330066e-19)
(-4.63331488e-18 5.12604027e-06 -8.79546051e-19)
(-5.89868592e-18 6.52530994e-06 -1.11920603e-18)
(-7.47066081e-18 8.26339871e-06 -1.41659778e-18)
(-9.40656713e-18 1.04036234e-05 -1.78231564e-18)
(-1.17793263e-17 1.30265456e-05 -2.2297578e-18)
(-1.46591685e-17 1.62097667e-05 -2.77161945e-18)
(-1.81189021e-17 2.00337658e-05 -3.42080967e-18)
(-2.22256333e-17 2.45727472e-05 -4.18882029e-18)
(-2.70409058e-17 2.98947927e-05 -5.08567557e-18)
(-3.26029248e-17 3.60422049e-05 -6.11655998e-18)
(-3.89198772e-17 4.30241091e-05 -7.280595e-18)
(-4.59536738e-17 5.07984676e-05 -8.56797062e-18)
(-5.36066356e-17 5.92573534e-05 -9.95781704e-18)
(-6.17099343e-17 6.82141672e-05 -1.14166468e-17)
(-7.00168169e-17 7.73961495e-05 -1.28979168e-17)
(-7.82045184e-17 8.64465028e-05 -1.43433074e-17)
(-8.58896258e-17 9.49413824e-05 -1.5686296e-17)
(-9.26595952e-17 0.000102424742 -1.68580881e-17)
(-9.81188754e-17 0.000108459323 -1.77952157e-17)
(-1.34109262e-19 1.48435464e-07 -2.54944771e-20)
(-4.05379808e-19 4.48680682e-07 -7.70617018e-20)
(-6.93963163e-19 7.68075426e-07 -1.31913844e-19)
(-1.02228143e-18 1.13142289e-06 -1.94307168e-19)
(-1.41397253e-18 1.56486606e-06 -2.68725186e-19)
(-1.89533189e-18 2.09747895e-06 -3.60149796e-19)
(-2.49670438e-18 2.76280278e-06 -4.74321358e-19)
(-3.25385017e-18 3.60035323e-06 -6.17991219e-19)
(-4.20928267e-18 4.65709744e-06 -7.99164984e-19)
(-5.41355719e-18 5.98887784e-06 -1.02733045e-18)
(-6.92634827e-18 7.66160517e-06 -1.31363678e-18)
(-8.81742537e-18 9.75234277e-06 -1.67104215e-18)
(-1.11660972e-17 1.23487013e-05 -2.11415473e-18)
(-1.40628485e-17 1.55506606e-05 -2.6594672e-18)
(-1.76108506e-17 1.94722514e-05 -3.32553057e-18)
(-2.19076726e-17 2.42213427e-05 -4.12940344e-18)
(-2.70451748e-17 2.98995343e-05 -5.08646895e-18)
(-3.31275494e-17 3.66220766e-05 -6.21366113e-18)
(-4.02178621e-17 4.44587743e-05 -7.51934647e-18)
(-4.83516612e-17 5.34490036e-05 -9.00583684e-18)
(-5.75018968e-17 6.35629221e-05 -1.0663086e-17)
(-6.75618828e-17 7.46826258e-05 -1.24660772e-17)
(-7.83260054e-17 8.6580827e-05 -1.43722847e-17)
(-8.94753677e-17 9.89049956e-05 -1.63205788e-17)
(-1.00573767e-16 0.000111172924 -1.82324171e-17)
(-1.11083884e-16 0.000122790633 -2.00165718e-17)
(-1.20410173e-16 0.000133099786 -2.15776421e-17)
(-1.27969213e-16 0.000141455463 -2.28274225e-17)
(-1.51460402e-19 1.67637778e-07 -2.87916868e-20)
(-4.58005302e-19 5.06919719e-07 -8.70614603e-20)
(-7.84873235e-19 8.68679196e-07 -1.49186271e-19)
(-1.15826818e-18 1.28190105e-06 -2.20139064e-19)
(-1.6059789e-18 1.77731661e-06 -3.05188739e-19)
(-2.15917359e-18 2.38938426e-06 -4.10237209e-19)
(-2.85416293e-18 3.15823548e-06 -5.42148104e-19)
(-3.73417998e-18 4.13163941e-06 -7.09074858e-19)
(-4.85119142e-18 5.36700321e-06 -9.20788756e-19)
(-6.26771271e-18 6.93337895e-06 -1.18899854e-18)
(-8.05853251e-18 8.913374e-06 -1.52763903e-18)
(-1.0312223e-17 1.14048294e-05 -1.95309927e-18)
(-1.31320923e-17 1.45218854e-05 -2.48431661e-18)
(-1.66369654e-17 1.83958601e-05 -3.14280052e-18)
(-2.09605604e-17 2.31745708e-05 -3.95234128e-18)
(-2.62321768e-17 2.90009967e-05 -4.93516545e-18)
(-3.2612421e-17 3.60527544e-05 -6.11831111e-18)
(-4.02304436e-17 4.44727098e-05 -7.52165958e-18)
(-4.91860385e-17 5.4371279e-05 -9.15798258e-18)
(-5.95733912e-17 6.58526453e-05 -1.103716e-17)
(-7.13882633e-17 7.89121583e-05 -1.31492298e-17)
(-8.45258484e-17 9.34339612e-05 -1.54647803e-17)
(-9.87471979e-17 0.00010915389 -1.79304865e-17)
(-1.13652639e-16 0.000125630105 -2.04670697e-17)
(-1.28663177e-16 0.000142222553 -2.29698455e-17)
(-1.43032082e-16 0.000158105774 -2.53149019e-17)
(-1.55898886e-16 0.000172328602 -2.73712364e-17)
(-1.66394502e-16 0.000183930349 -2.90177023e-17)
(-1.69535637e-19 1.87641113e-07 -3.22261808e-20)
(-5.12858202e-19 5.6762264e-07 -9.74834173e-20)
(-8.79768256e-19 9.73690446e-07 -1.67213667e-19)
(-1.30055423e-18 1.43934525e-06 -2.47163542e-19)
(-1.80752164e-18 2.00031066e-06 -3.43455965e-19)
(-2.43719305e-18 2.69696116e-06 -4.63002775e-19)
(-3.23250802e-18 3.5767504e-06 -6.13913948e-19)
(-4.24509963e-18 4.69672472e-06 -8.05915896e-19)
(-5.53768568e-18 6.12616499e-06 -1.05078269e-18)
(-7.18656278e-18 7.94934562e-06 -1.36277303e-18)
(-9.28412463e-18 1.02683253e-05 -1.75905072e-18)
(-1.19412411e-17 1.32055895e-05 -2.26004712e-18)
(-1.52891966e-17 1.690621e-05 -2.88969437e-18)
(-1.9480785e-17 2.15390719e-05 -3.67543486e-18)
(-2.46894343e-17 2.72959177e-05 -4.64777383e-18)
(-3.11043966e-17 3.43860296e-05 -5.83898702e-18)
(-3.89323017e-17 4.30379294e-05 -7.28290025e-18)
(-4.83548132e-17 5.34525499e-05 -9.00643377e-18)
(-5.95760417e-17 6.5855607e-05 -1.10376121e-17)
(-7.27199687e-17 8.03841981e-05 -1.33863915e-17)
(-8.78446413e-17 9.71024877e-05 -1.60469008e-17)
(-1.04870783e-16 0.000115922805 -1.89855447e-17)
(-1.23540333e-16 0.000136559838 -2.21360475e-17)
(-1.43377313e-16 0.000158487393 -2.53971869e-17)
(-1.63634582e-16 0.000180879552 -2.86309925e-17)
(-1.83289576e-16 0.000202605967 -3.16710771e-17)
(-2.01100748e-16 0.000222294239 -3.43398374e-17)
(-2.15755834e-16 0.000238493805 -3.64735203e-17)
(-1.88023506e-19 2.08100809e-07 -3.57387465e-20)
(-5.68994815e-19 6.29745171e-07 -1.08148163e-19)
(-9.77020224e-19 1.08130772e-06 -1.85686518e-19)
(-1.44670854e-18 1.60106552e-06 -2.74918378e-19)
(-2.01517793e-18 2.23006114e-06 -3.82875975e-19)
(-2.72471013e-18 3.01503187e-06 -5.17556255e-19)
(-3.62544931e-18 4.01138911e-06 -6.88421759e-19)
(-4.77825795e-18 5.28637226e-06 -9.06923581e-19)
(-6.25780039e-18 6.92245678e-06 -1.18705494e-18)
(-8.1558714e-18 9.02103781e-06 -1.54593115e-18)
(-1.05849127e-17 1.17063279e-05 -2.00437367e-18)
(-1.36815544e-17 1.51292888e-05 -2.58745056e-18)
(-1.76098601e-17 1.9471239e-05 -3.32488843e-18)
(-2.25637348e-17 2.49465331e-05 -4.25122097e-18)
(-2.87675834e-17 3.18032972e-05 -5.40546166e-18)
(-3.64741026e-17 4.03209787e-05 -6.83004541e-18)
(-4.59587805e-17 5.08042386e-05 -8.56892387e-18)
(-5.75029473e-17 6.35641797e-05 -1.06632922e-17)
(-7.13830689e-17 7.89064787e-05 -1.31483021e-17)
(-8.7848337e-17 9.71066013e-05 -1.60474394e-17)
(-1.07017407e-16 0.000118295668 -1.93537338e-17)
(-1.28889188e-16 0.00014247241 -2.30315237e-17)
(-1.53214142e-16 0.000169360923 -2.69975658e-17)
(-1.79479908e-16 0.000198394807 -3.11256871e-17)
(-2.06765435e-16 0.000228555917 -3.52357622e-17)
(-2.33708236e-16 0.000258338169 -3.91072473e-17)
(-2.58530528e-16 0.000285776425 -4.25033207e-17)
(-2.79217099e-16 0.000308643094 -4.52074348e-17)
(-2.06550315e-19 2.28603377e-07 -3.92583705e-20)
(-6.25280609e-19 6.92031996e-07 -1.18840111e-19)
(-1.07466173e-18 1.18935424e-06 -2.04230997e-19)
(-1.59376759e-18 1.76378326e-06 -3.02840525e-19)
(-2.22472509e-18 2.46189687e-06 -4.2264657e-19)
(-3.01586334e-18 3.33711314e-06 -5.72784217e-19)
(-4.02496556e-18 4.45328075e-06 -7.64147869e-19)
(-5.3227802e-18 5.8885573e-06 -1.01003197e-18)
(-6.99690546e-18 7.73970414e-06 -1.3268251e-18)