/*--------------------------------*- C++ -*----------------------------------*\
| =========                 |                                                 |
| \\      /  F ield         | foam-extend: Open Source CFD                    |
|  \\    /   O peration     | Version:     4.1                                |
|   \\  /    A nd           | Web:         http://www.foam-extend.org         |
|    \\/     M anipulation  |                                                 |
\*---------------------------------------------------------------------------*/
FoamFile
{
    version     2.0;
    format      ascii;
    class       surfaceScalarField;
    location    "0.35";
    object      meshPhi;
}
// * * * * * * * * * * * * * * * * * * * * * * * * * * * * * * * * * * * * * //

dimensions      [0 3 -1 0 0 0 0];

internalField   nonuniform List<scalar> 
102656
(
5.78241274e-21
2.79996767e-13
3.23811306e-29
0
8.45744262e-13
-5.78241496e-21
1.15648301e-20
1.43362467e-12
0
2.31296649e-20
2.06717615e-12
0
1.45513847e-27
2.77210562e-12
0
-4.62593557e-20
3.57404414e-12
5.78242585e-21
0
4.49878317e-12
5.78242954e-21
0
5.57231578e-12
-6.44428467e-28
0
6.82065012e-12
-5.78243882e-21
4.62594414e-20
8.26936596e-12
-1.15648911e-20
0
9.94289104e-12
0
4.62594986e-20
1.18634835e-11
-1.37199088e-27
-9.25190855e-20
1.40499225e-11
-5.78246933e-21
-9.25191712e-20
1.6515933e-11
1.15649551e-20
0
1.92683976e-11
5.78248854e-21
9.25193488e-20
2.23054486e-11
-2.57958569e-27
0
2.56145682e-11
5.78251388e-21
2.86871218e-26
2.91708657e-11
-3.37355904e-27
1.85039431e-19
3.29357324e-11
5.78254312e-21
0
3.6856091e-11
-5.78256303e-21
3.96731834e-26
4.0864452e-11
1.15651543e-20
9.25201264e-20
4.48799592e-11
1.15651816e-20
9.25202065e-20
4.88105376e-11
-5.78260651e-21
-1.85040745e-19
5.25561643e-11
5.78262754e-21
0
5.60131629e-11
5.78264175e-21
-1.85041037e-19
5.9079295e-11
5.78264752e-21
0
6.1659311e-11
0
6.36705519e-11
0
1.85041413e-19
0
5.6583363e-13
-5.78241273e-21
-1.33549812e-28
1.70897781e-12
-9.98314343e-29
-1.15648306e-20
2.89670712e-12
-1.69202899e-28
0
4.17703049e-12
-2.44000922e-28
-2.3129672e-20
5.60245841e-12
-5.78242321e-21
0
7.22536858e-12
-5.782427e-21
-4.62593766e-20
9.09853127e-12
-5.31952732e-28
-2.9127673e-27
1.12752287e-11
-5.78243501e-21
4.62594189e-20
1.38089049e-11
5.78243949e-21
4.29560979e-27
1.67522852e-11
-5.78244644e-21
0
2.01559174e-11
5.78245237e-21
-4.62595107e-20
2.40661006e-11
-5.78246173e-21
9.25190863e-20
2.85222054e-11
-1.67369392e-27
0
3.3553429e-11
0
-1.98154909e-26
3.91750957e-11
-5.78249339e-21
0
4.5384682e-11
5.78250376e-21
-9.25195172e-20
5.21578343e-11
-5.78251759e-21
2.97926515e-26
5.94447238e-11
5.78253599e-21
0
6.71671567e-11
-1.15651005e-20
3.74335416e-26
7.52168964e-11
5.78256478e-21
-9.25200142e-20
8.34556519e-11
5.7825866e-21
-9.25202399e-20
9.17171213e-11
0
2.77560988e-19
9.98113473e-11
-5.78262116e-21
9.25205086e-20
1.07531442e-10
-6.3577936e-27
-1.85041142e-19
1.14662481e-10
-5.78265259e-21
1.17366136e-25
1.20992106e-10
5.782666e-21
-1.21934259e-25
1.26322101e-10
0
1.30480052e-10
0
0
5.78241279e-21
8.6814256e-13
5.78241279e-21
1.15648282e-20
2.62197624e-12
-5.78241523e-21
0
4.44459946e-12
-5.78241794e-21
5.99846477e-28
6.4109381e-12
-2.58347472e-28
7.88240447e-28
8.60312454e-12
0
-2.31296821e-20
1.11032311e-11
-5.78242707e-21
-9.25187618e-20
1.39941912e-11
-5.66174414e-28
-3.11148101e-27
1.73600749e-11
0
9.25188558e-20
2.12856205e-11
-8.6466894e-28
4.62594567e-20
2.58549222e-11
-1.05270387e-27
9.25189801e-20
3.11491914e-11
-1.15649122e-20
4.62595219e-20
3.72435287e-11
0
-1.85038258e-19
4.42026972e-11
-5.78247602e-21
0
5.20759536e-11
-5.78248556e-21
-9.25193547e-20
6.08910942e-11
0
-9.25194771e-20
7.06479927e-11
-2.92165721e-27
9.25196105e-20
8.13120431e-11
0
0
9.28080626e-11
-1.15650935e-20
9.25199054e-20
1.05015333e-10
-5.78256712e-21
0
1.17764535e-10
-1.15651679e-20
-4.60938661e-26
1.30837351e-10
-5.47960969e-27
9.25203831e-20
1.43969396e-10
5.78262027e-21
5.49633332e-26
1.56856965e-10
-5.78264601e-21
9.2520685e-20
1.6916772e-10
-1.15653226e-20
1.85041762e-19
1.80555038e-10
0
-3.70083605e-19
1.90675265e-10
0
0
1.9920667e-10
5.78270268e-21
2.05868557e-10
0
-1.85042056e-19
-5.78241295e-21
1.19981332e-12
-3.83571377e-29
0
3.62395904e-12
0
1.15648316e-20
6.14479074e-12
-5.78241857e-21
-6.6041236e-28
8.8684492e-12
0
1.74012075e-27
1.191159e-11
-5.78242518e-21
6.93890566e-20
1.53911699e-11
5.78242871e-21
-4.62593921e-20
1.94259386e-11
-5.7824339e-21
9.25188286e-20
2.41370015e-11
5.78243865e-21
4.26455597e-27
2.96473094e-11
0
-9.25189442e-20
3.60799223e-11
-1.1564906e-20
4.62595096e-20
4.35549106e-11
5.78246112e-21
4.62595455e-20
5.21847862e-11
-5.78247471e-21
0
6.20684161e-11
5.78248293e-21
0
7.32834718e-11
1.1564995e-20
-2.49681413e-26
8.58776087e-11
0
9.25195897e-20
9.98587497e-11
-1.15650632e-20
-9.25197455e-20
1.15185061e-10
-5.78255078e-21
9.25199524e-20
1.31755428e-10
-1.15651388e-20
-1.85040186e-19
1.4940146e-10
-5.78259399e-21
-1.85040561e-19
1.67882172e-10
1.15652293e-20
-9.2520472e-20
1.86882583e-10
-5.78264191e-21
-2.77562112e-19
2.06017319e-10
0
9.2520917e-20
2.24840044e-10
5.78268312e-21
-2.77563086e-19
2.42859027e-10
0
0
2.59558511e-10
5.78272715e-21
1.85042664e-19
2.74424762e-10
-1.15655116e-20
0
2.86974947e-10
-1.0150246e-26
2.96786388e-10
0
0
0
1.57362826e-12
-4.32310345e-29
1.15648292e-20
4.75381961e-12
0
-1.15648322e-20
8.0642591e-12
5.78241903e-21
0
1.16485512e-11
-5.78242301e-21
-4.625936e-20
1.56649864e-11
-4.34073648e-28
2.31296915e-20
2.02729927e-11
1.15648622e-20
-4.62594066e-20
2.56354641e-11
0
-9.25188653e-20
3.19198141e-11
0
4.62594679e-20
3.92975483e-11
-5.78245124e-21
6.04179814e-27
4.794213e-11
-5.78246032e-21
-1.38778654e-19
5.80249255e-11
-5.78247104e-21
0
6.97090379e-11
5.78248156e-21
9.25193194e-20
8.31409142e-11
-5.78250061e-21
0
9.84397406e-11
0
0
1.15684837e-10
5.78253062e-21
0
1.3490152e-10
1.73476546e-20
9.25200291e-20
1.56046228e-10
1.15651543e-20
-9.2520154e-20
1.78992037e-10
-5.7826057e-21
-1.8504091e-19
2.03516054e-10
-6.25825709e-27
0
2.2929043e-10
5.78265686e-21
9.25209132e-20
2.55878877e-10
-5.78269515e-21
-9.25210864e-20
2.82740459e-10
0
1.85042971e-19
3.09242059e-10
5.78274873e-21
-8.82978785e-26
3.34680174e-10
-5.78278899e-21
0
3.58311712e-10
1.15656236e-20
1.85044065e-19
3.79392221e-10
5.7828309e-21
0
3.9721879e-10
0
4.11173858e-10
0
-1.85044595e-19
0
2.00242193e-12
-4.95892254e-29
0
6.05063827e-12
0
-1.15648342e-20
1.02704331e-11
0
-2.3129677e-20
1.48512359e-11
-1.15648495e-20
0
2.00025031e-11
0
0
2.5936385e-11
-5.78243486e-21
4.62594257e-20
3.28712701e-11
0
0
4.10336351e-11
-1.05399727e-27
4.62595053e-20
5.06579039e-11
0
-4.62595402e-20
6.19839897e-11
5.78246765e-21
0
7.52521901e-11
-5.78248237e-21
0
9.06951171e-11
5.78249538e-21
0
1.08526421e-10
-5.78251295e-21
9.25196774e-20
1.28926227e-10
-5.78253685e-21
9.2519846e-20
1.52023469e-10
-4.20249858e-27
0
1.7787568e-10
0
0
2.06447243e-10
1.15652316e-20
1.1635087e-25
2.37587664e-10
0
9.25210231e-20
2.71011954e-10
1.15653702e-20
9.25213534e-20
3.06285697e-10
5.78272804e-21
1.85043051e-19
3.42817687e-10
5.78275887e-21
9.45963664e-26
3.79862937e-10
0
-9.25221759e-20
4.16538437e-10
-1.24086364e-26
-1.12871406e-25
4.51852967e-10
0
0
4.84750789e-10
-5.78293133e-21
1.85046291e-19
5.14167107e-10
-5.78296561e-21
0
5.3909124e-10
5.78297839e-21
5.58631779e-10
-1.70532478e-26
0
-5.74456393e-29
2.49914922e-12
0
0
7.55391786e-12
-5.78241777e-21
-2.31296715e-20
1.28316766e-11
-5.78242182e-21
2.31296811e-20
1.85783599e-11
0
0
2.50668149e-11
0
-6.93891221e-20
3.25751892e-11
0
0
4.1392212e-11
5.78244561e-21
0
5.18202894e-11
-1.24745749e-27
6.94392616e-27
6.41759808e-11
-1.56334169e-27
8.60232388e-27
7.87873704e-11
0
-4.62596581e-20
9.59878646e-11
5.78249438e-21
-1.3877923e-19
1.16105897e-10
-2.93871173e-27
0
1.39450073e-10
-5.78253865e-21
9.25199275e-20
1.66289498e-10
0
-4.51365387e-26
1.96829363e-10
5.78259053e-21
9.25204331e-20
2.31182386e-10
0
-9.25207568e-20
2.69337359e-10
-5.78266278e-21
0
3.11126852e-10
5.78270533e-21
0
3.5619699e-10
-5.78276172e-21
1.8504402e-19
4.03983054e-10
5.78280186e-21
-1.85044797e-19
4.53695236e-10
0
-9.25229036e-20
5.04319024e-10
0
9.25233502e-20
5.54634156e-10
0
9.25236329e-20
6.03254652e-10
-5.78301648e-21
-1.8504835e-19
6.486902e-10
5.78308555e-21
0
6.89426198e-10
-2.02684041e-26
-1.85049272e-19
7.2401654e-10
-2.1386284e-26
7.51180423e-10
0
0
0
3.07683592e-12
0
1.15648325e-20
9.3034797e-12
-2.0233373e-28
0
1.58172164e-11
0
0
2.29336853e-11
0
-2.31297006e-20
3.10043607e-11
5.78243599e-21
2.04422709e-27
4.03901367e-11
-1.15648865e-20
4.62594787e-20
5.14689977e-11
-5.78245299e-21
0
6.46410431e-11
5.78246278e-21
4.62595882e-20
8.03301023e-11
-1.86819559e-27
0
9.89812053e-11
-2.33538129e-27
4.62597356e-20
1.21053344e-10
-2.89877836e-27
0
1.47006676e-10
0
0
1.77283327e-10
-4.37534892e-27
4.66228796e-26
2.12281202e-10
-5.3188592e-27
9.25205775e-20
2.52320664e-10
0
-9.25208943e-20
2.97604604e-10
-5.78268458e-21
-7.90267859e-26
3.48173371e-10
-5.78273561e-21
1.8504375e-19
4.03857186e-10
-5.78279274e-21
1.0734247e-25
4.64230025e-10
-1.24938295e-26
9.25229643e-20
5.28570319e-10
-1.44082968e-26
-9.2523276e-20
5.95834981e-10
0
9.25241614e-20
6.64653775e-10
-1.85424304e-26
0
7.33350529e-10
5.78310498e-21
-9.25251572e-20
7.9999586e-10
5.78319769e-21
1.85051775e-19
8.62492735e-10
-2.47258852e-26
-1.8505273e-19
9.18691627e-10
1.15666819e-20
-1.85053059e-19
9.66526746e-10
-2.80458765e-26
1.00416012e-09
0
0
5.78241435e-21
3.7483647e-12
1.15648286e-20
0
1.13389308e-11
-5.78241995e-21
-1.15648406e-20
1.92964311e-11
-5.78242589e-21
0
2.80219942e-11
0
4.62594238e-20
3.79643023e-11
0
-4.62594592e-20
4.95877886e-11
0
9.25190261e-20
6.33833008e-11
-5.78245917e-21
0
7.98762e-11
-1.15649484e-20
-4.62596367e-20
9.96299524e-11
2.23199354e-27
9.25194726e-20
1.23244054e-10
5.78250848e-21
4.62598294e-20
1.51346038e-10
5.78253256e-21
4.62599563e-20
1.84576084e-10
5.78256163e-21
0
2.23562701e-10
5.78259642e-21
0
2.6888842e-10
-1.15652819e-20
-9.25209901e-20
3.21044875e-10
0
0
3.80377571e-10
0
-9.936619e-26
4.47021927e-10
0
9.25227472e-20
5.20833816e-10
5.78287892e-21
0
6.01319847e-10
-1.58541955e-26
-1.85048221e-19
6.87574953e-10
5.78304688e-21
1.79876766e-25
7.78236912e-10
5.78314039e-21
0
8.7146869e-10
-5.78326188e-21
2.77579838e-19
9.64979311e-10
5.78336392e-21
0
1.0560916e-09
5.78343492e-21
-1.85056288e-19
1.1418604e-09
5.78352794e-21
0
1.2192378e-09
-5.78364734e-21
0
1.28527324e-09
-5.78372219e-21
1.33732855e-09
5.78374298e-21
1.85059496e-19
-8.9930083e-29
4.52598232e-12
-8.9930083e-29
-3.65908393e-28
1.36985368e-11
5.78242129e-21
0
2.33374642e-11
-5.78242773e-21
2.31297017e-20
3.39472027e-11
0
2.31297252e-20
4.60959589e-11
0
2.3129747e-20
6.03774336e-11
-5.78245593e-21
-4.62595529e-20
7.74241188e-11
-5.78247091e-21
4.62596163e-20
9.79209604e-11
0
-4.62596915e-20
1.22612319e-10
0
4.62598253e-20
1.52300387e-10
-3.36031356e-27
-4.62599409e-20
1.87837262e-10
-5.78256154e-21
0
2.3010728e-10
-5.26560225e-27
5.77171359e-26
2.79996919e-10
5.782637e-21
0
3.38350662e-10
0
-1.85043214e-19
4.05911253e-10
0
-2.77566755e-19
4.8324421e-10
5.78283443e-21
0
5.7064802e-10
5.78291979e-21
9.25238387e-20
6.68053785e-10
-5.78301681e-21
9.25249249e-20
7.74920921e-10
-2.00766573e-26
2.01371296e-25
8.90139317e-10
-5.7832444e-21
-2.310886e-25
1.01195206e-09
-1.1566718e-20
1.85055796e-19
1.13791548e-09
5.7834763e-21
-9.25287115e-20
1.26491387e-09
5.78361014e-21
-2.77589604e-19
1.38924353e-09
-5.7837429e-21
0
1.50677437e-09
5.78386984e-21
0
1.61318603e-09
5.78403144e-21
-7.96319451e-25
1.70426226e-09
5.78408596e-21
1.77621258e-09
0
0
-5.78241516e-21
5.41953327e-12
-5.78241516e-21
0
1.64164517e-11
-5.78242276e-21
0
2.80052952e-11
-5.39826391e-28
4.6259423e-20
4.08095391e-11
0
2.31297356e-20
5.55444093e-11
5.78245042e-21
3.31156915e-27
7.29657258e-11
5.78246186e-21
-9.25191795e-20
9.38810727e-11
0
-1.10630462e-26
1.1917685e-10
5.78249893e-21
1.41192214e-26
1.49830923e-10
-3.14778344e-27
1.79003359e-26
1.86909171e-10
5.78254981e-21
0
2.31560177e-10
5.78258622e-21
1.3878086e-19
2.84996541e-10
-5.78263718e-21
0
3.48458428e-10
-5.78269298e-21
-1.85043248e-19
4.23158074e-10
0
-9.25222565e-20
5.10201508e-10
-5.78282823e-21
9.25230482e-20
6.104867e-10
-5.78293467e-21
-1.85048237e-19
7.24578999e-10
5.78304442e-21
-9.25250039e-20
8.52567893e-10
5.78314885e-21
-9.25259483e-20
9.9391268e-10
-5.78331197e-21
9.25279569e-20
1.14729103e-09
5.78343916e-21
0
1.31047083e-09
-5.78363901e-21
9.25302447e-20
1.48023072e-09
5.78377952e-21
-1.85063777e-19
1.65235708e-09
0
-4.2078955e-25
1.82174301e-09
-5.78418996e-21
0
1.98260561e-09
0
-1.85071342e-19
2.12882219e-09
-5.96324095e-26
3.7014774e-19
2.25436311e-09
1.15692835e-20
2.35377509e-09
0
1.0905154e-24
-5.7824158e-21
6.44547774e-12
0
0
1.9532288e-11
5.78242403e-21
-2.31296991e-20
3.33530244e-11
5.78243295e-21
-2.31297223e-20
4.868775e-11
-5.78244396e-21
-2.31297466e-20
6.64380145e-11
0
2.31297829e-20
8.75490434e-11
0
-4.62596492e-20
1.13034704e-10
0
-4.62597535e-20
1.44037841e-10
5.782508e-21
0
1.81839225e-10
-5.78254313e-21
9.25200729e-20
2.2784321e-10
0
-4.62602489e-20
2.83585407e-10
0
4.62604974e-20
3.50715748e-10
-5.78268171e-21
9.25216015e-20
4.30954213e-10
-1.15655014e-20
9.2522335e-20
5.26023748e-10
-1.18962333e-26
0
6.37549114e-10
0
-9.25242488e-20
7.669215e-10
0
0
9.15128e-10
-5.78319501e-21
2.32272922e-25
1.08255036e-09
-5.78335718e-21
-9.25278549e-20
1.26873934e-09
-5.78354159e-21
3.24912823e-25
1.47218325e-09
0
0
1.69009974e-09
0
-9.25339817e-20
1.91828863e-09
0
-4.89812905e-25
2.15108991e-09
0
-9.25379957e-20
2.38148961e-09
-6.47337045e-26
-1.85078573e-19
2.60140596e-09
5.78488443e-21
3.70165041e-19
2.80216447e-09
-5.78510238e-21
0
2.97513455e-09
0
3.11245816e-09
5.78553113e-21
1.85088155e-19
0
7.61090737e-12
0
1.15648427e-20
2.30682784e-11
0
8.56526632e-28
3.94267401e-11
0
-2.3129733e-20
5.76621806e-11
5.78244743e-21
0
7.88890792e-11
-1.43994362e-27
-2.31297944e-20
1.04274219e-10
-1.93423699e-27
4.62597044e-20
1.35104306e-10
5.78249973e-21
-4.62598284e-20
1.72854847e-10
-5.78253001e-21
0
2.19165091e-10
-5.78256499e-21
9.25203348e-20
2.75857977e-10
5.78260893e-21
-4.62604244e-20
3.4498187e-10
5.78265685e-21
-4.62608084e-20
4.28765001e-10
-5.78273241e-21
0
5.29570007e-10
-5.78281698e-21
-1.85046097e-19
6.49821381e-10
1.15658267e-20
9.25240522e-20
7.91874879e-10
-5.78304606e-21
-9.25255198e-20
9.57841024e-10
-5.78319655e-21
9.25268215e-20
1.14935442e-09
-1.73500968e-20
-9.25285553e-20
1.36729753e-09
5.78354946e-21
3.45658049e-25
1.61147482e-09
-5.78382085e-21
9.25335525e-20
1.88026345e-09
5.78404235e-21
1.85071237e-19
2.17028116e-09
5.78433049e-21
5.53135429e-25
2.47612657e-09
-5.78464081e-21
-2.77621648e-19
2.7902601e-09
1.15700055e-20
-1.85086644e-19
3.10309643e-09
5.78529521e-21
0
3.40336899e-09
5.7856163e-21
-1.68767049e-24
3.67879435e-09
5.78601602e-21
0
3.91700719e-09
-1.08925906e-25
4.10666367e-09
-1.14978109e-25
0
0
8.91524239e-12
-5.7824168e-21
-6.1558563e-28
2.70340708e-11
-5.78242834e-21
2.31297139e-20
4.62594544e-11
-1.15648785e-20
0
6.77845668e-11
5.78245201e-21
-4.62595524e-20
9.29677027e-11
-5.78246781e-21
0
1.23260314e-10
0
-9.25195145e-20
1.60293799e-10
-2.91312038e-27
-4.62598914e-20
2.05922102e-10
-3.82416967e-27
1.38780256e-19
2.62233498e-10
1.15651672e-20
4.62603553e-20
3.31620877e-10
5.78263434e-21
4.62606195e-20
4.16760224e-10
-8.3010397e-27
0
5.20602031e-10
-1.15655782e-20
9.25227614e-20
6.46381662e-10
-5.78289181e-21
9.25240016e-20
7.97478422e-10
1.15660032e-20
9.25251742e-20
9.77263921e-10
0
9.25267685e-20
1.18888134e-09
5.78333483e-21
9.25286616e-20
1.43493264e-09
0
9.25315876e-20
1.71711653e-09
-5.78384998e-21
4.2939796e-25
2.03576217e-09
-1.15682633e-20
5.12524616e-25
2.38930851e-09
-5.7845047e-21
0
2.77378426e-09
-5.78482328e-21
1.85087133e-19
3.18236549e-09
-1.15705493e-20
-9.25472115e-20
3.60511501e-09
0
9.25508722e-20
4.02901732e-09
5.78600448e-21
-1.85106765e-19
4.43841841e-09
-1.19701635e-25
-1.85112982e-19
4.81593987e-09
-5.78708701e-21
0
5.14384794e-09
-5.78745576e-21
5.4057312e-09
-5.78760245e-21
-1.85124677e-19
0
1.0363153e-11
5.7824172e-21
1.15648475e-20
3.14404593e-11
-5.0959104e-28
0
5.3861438e-11
1.15648848e-20
-2.31297555e-20
7.90694042e-11
-5.78245796e-21
-4.62595795e-20
1.08717795e-10
0
6.93895367e-20
1.44602215e-10
0
0
1.88746278e-10
-3.2904789e-27
4.62599738e-20
2.43456537e-10
-5.78256585e-21
-4.62601828e-20
3.11402487e-10
-5.782608e-21
4.62604827e-20
3.95660558e-10
-5.78267483e-21
4.62607873e-20
4.99707465e-10
5.78275257e-21
-5.56292915e-26
6.27491178e-10
-5.78285102e-21
0
7.83327637e-10
5.78295878e-21
-1.85049821e-19
9.71814694e-10
0
-9.25266763e-20
1.19776713e-09
-5.78331822e-21
0
1.46579303e-09
-5.78355019e-21
0
1.77989457e-09
-5.78383001e-21
-1.8506721e-19
2.14305435e-09
-5.78411372e-21
9.25373941e-20
2.55655996e-09
-1.15690458e-20
6.36592338e-25
3.01923879e-09
1.15699306e-20
0
3.52666054e-09
1.15708402e-20
-1.85100219e-19
4.07040437e-09
5.78585748e-21
0
4.63755208e-09
0
-9.25610814e-20
5.21057884e-09
5.78713295e-21
0
5.76783408e-09
0
1.85135336e-19
6.28476667e-09
-5.78845056e-21
0
6.73591678e-09
5.78895721e-21
7.09747783e-09
0
0
-5.78241811e-21
1.19515454e-11
0
-7.51529161e-28
3.62780544e-11
-5.78243202e-21
-2.3129728e-20
6.22207636e-11
0
0
9.15118647e-11
-5.78246272e-21
2.31298123e-20
1.26146308e-10
-5.78248321e-21
-6.29714146e-27
1.68311096e-10
-5.78250902e-21
-4.62598721e-20
2.20489538e-10
1.15650804e-20
4.62600587e-20
2.85555627e-10
-5.78258462e-21
0
3.66868755e-10
-5.78263958e-21
4.62606465e-20
4.68322062e-10
-1.15654122e-20
-4.62610049e-20
5.94437626e-10
5.78279007e-21
-4.62615087e-20
7.50381057e-10
-1.42119972e-26
9.25244545e-20
9.41867354e-10
-1.83348378e-26
9.25260971e-20
1.17521259e-09
5.78324789e-21
0
1.45710664e-09
1.15669259e-20
-3.38884721e-25
1.794095e-09
0
-1.85066901e-19
2.19220944e-09
5.78410696e-21
9.25372815e-20
2.65640917e-09
-5.78446304e-21
6.45533904e-25
3.18961119e-09
-5.78508774e-21
1.56722766e-24
3.79159589e-09
0
-1.85103025e-19
4.45781708e-09
-1.15724802e-20
-9.25569545e-20
5.17821262e-09
1.15738046e-20
1.85129082e-19
5.93629265e-09
5.7877513e-21
0
6.70872631e-09
5.78839782e-21
-3.70307404e-19
7.46575996e-09
-1.96362126e-25
0
8.17278827e-09
0
-1.85177634e-19
8.79321783e-09
0
9.29239289e-09
0
1.85185475e-19
-5.78241845e-21
1.36713776e-11
0
0
4.15198388e-11
0
-1.28380729e-27
7.12931994e-11
5.78244782e-21
-2.31297813e-20
1.05050649e-10
-5.78246566e-21
-4.62596455e-20
1.45175428e-10
-5.78248979e-21
6.91607837e-27
1.94302595e-10
1.15650308e-20
9.25198644e-20
2.55452796e-10
0
4.62601426e-20
3.32160883e-10
-5.78260315e-21
3.2509758e-26
4.28600056e-10
-7.13911586e-27
4.27727787e-26
5.4969224e-10
5.7827461e-21
0
7.01215491e-10
-5.78283823e-21
-9.25237747e-20
8.89810608e-10
0
9.25251256e-20
1.1230423e-09
1.15662711e-20
9.25270244e-20
1.40948959e-09
-2.70937214e-26
9.2529719e-20
1.75832213e-09
5.7836153e-21
9.25323505e-20
2.17861007e-09
0
0
2.67916645e-09
-5.78441386e-21
9.25415741e-20
3.26796178e-09
-5.78492613e-21
-1.8509101e-19
3.95053865e-09
-1.15709925e-20
-1.85104092e-19
4.72854221e-09
1.15724194e-20
9.25596539e-20
5.59801696e-09
5.7870995e-21
-9.25648341e-20
6.54747992e-09
-1.58353342e-25
1.61933523e-24
7.55639992e-09
0
1.85170093e-19
8.59419752e-09
0
-1.85187713e-19
9.62035328e-09
-5.79126982e-21
1.85199454e-19
1.05862646e-08
0
1.85218311e-19
1.14392732e-08
0
1.21286861e-08
5.79374446e-21
-5.40105586e-24
5.78241892e-21
1.55069603e-11
1.1564838e-20
1.15648532e-20
4.71184833e-11
-6.47473332e-28
-1.37447013e-27
8.09987218e-11
0
2.31297834e-20
1.19570624e-10
-5.78247125e-21
0
1.65651878e-10
0
0
2.22383821e-10
-1.15650507e-20
0
2.93402247e-10
5.78256757e-21
4.62602221e-20
3.83006934e-10
-5.78262059e-21
-4.62605281e-20
4.96330589e-10
0
4.73314436e-26
6.39502733e-10
-5.7827912e-21
-9.25229586e-20
8.19800842e-10
5.78289914e-21
8.19011083e-26
1.04576106e-09
-5.78305279e-21
-9.25261965e-20
1.32725581e-09
-2.36169316e-26
-9.252848e-20
1.67557699e-09
0
9.25310066e-20
2.10298591e-09
5.78378893e-21
0
2.62219063e-09
-1.15684197e-20
-5.87886421e-25
3.24619369e-09
-5.78474305e-21
9.25457206e-20
3.98686929e-09
0
9.25515918e-20
4.85347213e-09
0
-9.25582835e-20
5.85121945e-09
-1.15740549e-20
9.25685221e-20
6.97808018e-09
0
9.25787894e-20
8.22181801e-09
1.15783971e-20
-9.25920434e-20
9.55776349e-09
0
0
1.09467213e-08
-5.7918115e-21
1.85227609e-19
1.23342407e-08
1.15868246e-20
0
1.36524499e-08
0
-3.70532885e-19
1.48254911e-08
5.7959418e-21
1.57787077e-08
-5.797418e-21
0
0
1.74354366e-11
0
1.15648557e-20
5.30046552e-11
-6.80725356e-28
1.44841295e-27
9.12185665e-11
-5.78245358e-21
-2.31297954e-20
1.34897495e-10
-1.77252553e-27
5.83794016e-27
1.87336637e-10
0
-4.62598435e-20
2.52239397e-10
-5.78253775e-21
4.62600372e-20
3.3393242e-10
1.15651517e-20
-2.89427439e-26
4.37584735e-10
1.15652656e-20
3.86911782e-26
5.69433654e-10
-1.69084805e-26
4.6261176e-20
7.37014882e-10
5.78280121e-21
9.25234466e-20
9.49387862e-10
1.15658588e-20
4.62623251e-20
1.21733759e-09
0
0
1.55353117e-09
5.78331582e-21
-9.25296655e-20
1.9725877e-09
0
1.85065624e-19
2.4907373e-09
0
9.25367515e-20
3.1256502e-09
0
2.77626513e-19
3.89569351e-09
-5.7850821e-21
0
4.81825734e-09
-1.15715636e-20
-1.85113587e-19
5.90859532e-09
-1.7360127e-20
1.85134128e-19
7.17728832e-09
-1.5335752e-25
9.25785129e-20
8.62605105e-09
5.78899638e-21
-9.25916573e-20
1.02436639e-08
5.79049023e-21
9.26087706e-20
1.20020784e-08
5.79217826e-21
2.90973477e-24
1.38527156e-08
0
-1.85276235e-19
1.57238707e-08
0
1.85307148e-19
1.75216515e-08
0
0
1.91367347e-08
-4.98587696e-25
2.04581121e-08
-5.8016502e-21
0
-1.15648393e-20
1.94266012e-11
5.78241954e-21
1.15648558e-20
5.90863952e-11
0
1.49990199e-27
1.01793902e-10
5.78245382e-21
0
1.50795019e-10
5.78247508e-21
6.08312176e-27
2.09899456e-10
-5.78250171e-21
4.62598773e-20
2.83422123e-10
-1.15650795e-20
-2.26525774e-26
3.76449447e-10
0
4.62603796e-20
4.95117264e-10
5.78264144e-21
4.62607538e-20
6.46905994e-10
0
-4.62611952e-20
8.40953005e-10
-1.20202602e-26
1.38785647e-19
1.08837427e-09
-5.78298305e-21
-4.6262674e-20
1.40257622e-09
-5.78319467e-21
0
1.79952335e-09
-5.78339462e-21
9.2530762e-20
2.29789952e-09
0
-9.25345869e-20
2.91905231e-09
0
-9.25394962e-20
3.68674127e-09
5.78471861e-21
0
4.62612555e-09
-1.15707451e-20
9.2553566e-20
5.76258673e-09
-5.78640337e-21
-9.25620491e-20
7.12020386e-09
-1.40120386e-25
-9.25720057e-20
8.71763725e-09
-1.78138631e-25
2.77766228e-19
1.05631741e-08
-5.79037572e-21
1.85212051e-19
1.26495473e-08
1.15840494e-20
2.99102691e-24
1.49477849e-08
0
-9.26420803e-20
1.74008546e-08
5.79658882e-21
0
1.99173346e-08
-1.15988197e-20
-3.7074521e-19
2.23694007e-08
0
-1.85415687e-19
2.45997797e-08
-6.31791495e-25
2.64412144e-08
5.80631829e-21
0
-5.78241987e-21
2.14431683e-11
5.78241964e-21
1.15648563e-20
6.52498637e-11
-5.78243763e-21
-1.15648773e-20
1.1252688e-10
-5.78245569e-21
2.31297995e-20
1.66965981e-10
5.7824743e-21
2.31298672e-20
2.32919071e-10
-5.78250619e-21
8.55546345e-27
3.15351438e-10
0
0
4.20165807e-10
5.78258623e-21
-3.16495064e-26
5.5454785e-10
5.78264903e-21
0
7.27342937e-10
-9.30239022e-27
0
9.49467934e-10
5.7828452e-21
4.62620457e-20
1.23435321e-09
-1.68822059e-26
4.62629812e-20
1.59839728e-09
0
9.252816e-20
2.06139776e-09
5.78345809e-21
-1.85063019e-19
2.64689468e-09
0
1.85071421e-19
3.3823279e-09
-5.35770034e-26
-9.25421304e-20
4.29888594e-09
1.15697154e-20
9.25477741e-20
5.4307978e-09
5.78562693e-21
-9.25566134e-20
6.81396438e-09
-5.78673422e-21
-9.25691607e-20
8.48386805e-09
-1.57705351e-25
-9.25815785e-20
1.04718111e-08
5.7894207e-21
-1.85201578e-19
1.27981597e-08
-5.79160032e-21
-9.26214872e-20
1.54635021e-08
0
2.7793313e-19
1.84424507e-08
5.79677932e-21
-9.26684139e-20
2.16748088e-08
5.79998327e-21
0
2.50503115e-08
0
1.85451572e-19
2.83997773e-08
3.05810966e-21
-3.71023301e-19
3.14986853e-08
3.35538407e-22
3.40907143e-08
3.62050081e-22
0
0
2.34415613e-11
0
-2.3129713e-20
7.1361718e-11
5.78243599e-21
-1.51366601e-27
1.2318461e-10
-1.23254753e-27
0
1.83057744e-10
-1.86098391e-27
-2.31298608e-20
2.55890305e-10
-1.73475153e-20
2.31299513e-20
3.47321822e-10
0
-4.62601044e-20
4.641093e-10
-1.15651794e-20
0
6.14548005e-10
5.78265825e-21
4.34789634e-26
8.08941087e-10
-9.4366818e-27
-4.62613279e-20
1.06012736e-09
-5.78286657e-21
9.25241669e-20
1.38406788e-09
0
-1.07350621e-25
1.80047878e-09
-2.33703681e-26
0
2.33347748e-09
-5.78353033e-21
0
3.01217992e-09
-5.78391355e-21
-9.25369778e-20
3.87114637e-09
5.78442143e-21
9.2542372e-20
4.95052127e-09
5.78501544e-21
9.255009e-20
6.29563614e-09
-1.15719346e-20
1.20098909e-24
7.95580181e-09
-5.78697404e-21
9.25744323e-20
9.98190137e-09
-1.73244904e-25
0
1.24228214e-08
0
2.62192995e-24
1.53171644e-08
0
-1.85267645e-19
1.86829975e-08
0
-1.85326737e-19
2.2509644e-08
5.79866286e-21
9.26977799e-20
2.67424038e-08
-5.80324625e-21
1.8547276e-19
3.12599289e-08
-2.7317592e-21
-1.85554454e-19
3.58520856e-08
-2.01570066e-20
3.71300839e-19
4.02055307e-08
-2.3270317e-20
4.39201077e-08
-2.32884533e-20
-1.9126039e-23
-5.78241952e-21
2.53732759e-11
-5.78241952e-21
-2.31297108e-20
7.72732516e-11
5.78243519e-21
1.15648753e-20
1.3350629e-10
-5.782454e-21
0
1.98672859e-10
-5.78247576e-21
0
2.78238836e-10
5.78250344e-21
4.6259872e-20
3.78522641e-10
-5.78254344e-21
0
5.07148871e-10
5.78258353e-21
0
6.73549904e-10
-5.78266097e-21
-4.62607794e-20
8.89537149e-10
0
9.25227513e-20
1.16995852e-09
5.78286318e-21
0
1.53345084e-09
-1.72758753e-26
1.38789183e-19
2.00328313e-09
-5.78324549e-21
0
2.60826683e-09
5.78350969e-21
0
3.38367809e-09
0
-9.2537498e-20
4.37209321e-09
0
-1.85087236e-19
5.62397634e-09
-7.78838872e-26
9.25525404e-20
7.19777528e-09
-5.78612063e-21
1.2715866e-24
9.15918558e-09
5.78721993e-21
0
1.15791254e-08
0
2.21498394e-24
1.45298875e-08
5.79083074e-21
-9.26156187e-20
1.80772313e-08
5.79343995e-21
9.2651821e-20
2.22714398e-08
5.79674991e-21
0
2.71353378e-08
-2.74727294e-21
9.27354962e-20
3.26401043e-08
6.16188083e-21
-1.85579068e-19
3.86762599e-08
-8.51525057e-21
0
4.50139806e-08
-1.16396292e-20
3.71606974e-19
5.12417897e-08
-1.74801662e-20
5.67271052e-08
-2.33365605e-20
-1.8593361e-19
0
2.71867916e-11
0
1.1564853e-20
8.28262532e-11
0
0
1.43213485e-10
0
0
2.13384706e-10
5.78247035e-21
5.718021e-27
2.99343779e-10
-5.78249833e-21
4.62598499e-20
4.08069888e-10
-1.73475957e-20
0
5.48038556e-10
5.78257495e-21
-3.01177932e-26
7.29806382e-10
-6.5059622e-27
4.62607597e-20
9.66688635e-10
-5.78272879e-21
-9.25224855e-20
1.27555493e-09
-1.73485251e-20
7.70800334e-26
1.67776202e-09
1.66893335e-26
-2.10268349e-25
2.20023189e-09
5.78319863e-21
0
2.87666529e-09
1.15669683e-20
-1.85064466e-19
3.74885205e-09
0
0
4.86799621e-09
0
-9.25440065e-20
6.29591144e-09
0
-9.25528995e-20
8.10585677e-09
-1.05018018e-25
9.25647539e-20
1.03826739e-08
-1.41494266e-25
-9.25787304e-20
1.32217578e-08
0
2.32328625e-24
1.67262478e-08
0
0
2.10016289e-08
5.79409659e-21
-1.85327606e-19
2.61478247e-08
5.79790048e-21
-9.2704297e-20
3.22477596e-08
-5.80346564e-21
-9.27686087e-20
3.93457566e-08
-2.32387606e-20
0
4.7405166e-08
-1.74533837e-20
-1.85842692e-19
5.62419724e-08
-3.4966899e-20
0
6.53907851e-08
-1.75192953e-20
7.3867673e-08
-2.34065751e-20
1.86259589e-19
0
2.88299523e-11
0
1.15648503e-20
8.78603361e-11
-5.82182759e-28
-1.15648677e-20
1.52023094e-10
0
2.31297771e-20
2.26757552e-10
5.782465e-21
4.62596528e-20
3.18567234e-10
5.78248837e-21
-2.31299046e-20
4.35048869e-10
-3.12007145e-27
4.62599872e-20
5.85478506e-10
5.7825655e-21
4.62602498e-20
7.8147766e-10
-5.78261804e-21
-4.62606087e-20
1.03779648e-09
5.78269572e-21
9.25221996e-20
1.37324871e-09
1.15656266e-20
-4.62618434e-20
1.81182946e-09
-1.15659257e-20
9.25254782e-20
2.38403883e-09
0
-1.85056044e-19
3.12842079e-09
5.78341763e-21
-9.25313059e-20
4.09330298e-09
-5.78382784e-21
-9.25364606e-20
5.33868785e-09
0
-6.85661136e-25
6.93819439e-09
0
0
8.98088402e-09
-5.78590793e-21
1.26858641e-24
1.15727326e-08
1.15743334e-20
-9.25780486e-20
1.48374589e-08
0
9.26014749e-20
1.8916438e-08
-2.53291625e-25
-1.85258447e-19
2.39675913e-08
5.79426269e-21
8.54802675e-24
3.01635267e-08
-1.43219409e-20
0
3.76889362e-08
-8.50455154e-21
-9.27908502e-20
4.67358192e-08
-2.90618375e-20
-1.85802197e-19
5.74787437e-08
-1.74697357e-20
0
6.99665715e-08
-5.83645758e-21
3.90925103e-23
8.38639267e-08
-1.75718797e-20
9.77439412e-08
-2.35153995e-20
-1.86788658e-19
1.15648345e-20
3.02526771e-11
5.78241743e-21
-6.79603253e-28
9.22212949e-11
-1.15648585e-20
-1.15648618e-20
1.59662223e-10
0
2.31297568e-20
2.38369783e-10
5.78245931e-21
-2.31297986e-20
3.35288997e-10
-1.93384229e-27
4.62597371e-20
4.58565178e-10
1.15650138e-20
0
6.18189408e-10
5.78254605e-21
-4.62601563e-20
8.26739724e-10
5.78259243e-21
0
1.1002627e-09
-1.15653296e-20
-4.62608874e-20
1.45933982e-09
0
4.62614881e-20
1.930382e-09
-1.37103925e-26
-9.25247138e-20
2.54719166e-09
-1.8868336e-26
2.40400888e-25
3.35282333e-09
0
-9.25299999e-20
4.40175917e-09
-5.78367983e-21
-1.85068973e-19
5.76239352e-09
-5.78420264e-21
-9.25407162e-20
7.51979342e-09
-6.72608991e-26
-9.25489347e-20
9.77868119e-09
-9.22638314e-26
1.17036767e-24
1.26666047e-08
-5.78690885e-21
9.25756468e-20
1.63374021e-08
-1.73465784e-25
-9.25969715e-20
2.09754891e-08
5.79087706e-21
9.26236395e-20
2.68024353e-08
-2.7392901e-21
9.2668713e-20
3.40889638e-08
-2.01095724e-20
9.27295041e-20
4.31774788e-08
-1.16090019e-20
9.28197429e-20
5.45202833e-08
-2.90698311e-20
-1.85890397e-19
6.87298439e-08
-2.91400919e-20
0
8.65596914e-08
-2.33996494e-20
-1.86957515e-19
1.08380381e-07
-2.35257425e-20
1.32284266e-07
-2.36876916e-20
1.87587272e-19
-5.78241634e-21
3.14097993e-11
-5.78241621e-21
-5.53136228e-28
9.57698774e-11
5.78242576e-21
2.31297084e-20
1.65883839e-10
-5.78243715e-21
-2.3129739e-20
2.47838494e-10
-5.7824505e-21
3.70817434e-27
3.48943616e-10
0
-4.62596564e-20
4.77799779e-10
-1.15649813e-20
9.25195961e-20
6.44994013e-10
-3.09990515e-27
0
8.63904983e-10
-5.78256008e-21
2.75958421e-26
1.15166924e-09
0
-4.62606096e-20
1.53036162e-09
-5.78270361e-21
-1.38783332e-19
2.0284446e-09
5.78280346e-21
-9.2523676e-20
2.6825413e-09
-1.15659206e-20
-2.00358012e-25
3.5395847e-09
1.15663158e-20
0
4.65939021e-09
5.78344106e-21
0
6.11769326e-09
1.15677037e-20
-5.25420779e-25
8.00969617e-09
0
9.2543619e-20
1.04542082e-08
0