/*--------------------------------*- C++ -*----------------------------------*\
| =========                 |                                                 |
| \\      /  F ield         | foam-extend: Open Source CFD                    |
|  \\    /   O peration     | Version:     4.1                                |
|   \\  /    A nd           | Web:         http://www.foam-extend.org         |
|    \\/     M anipulation  |                                                 |
\*---------------------------------------------------------------------------*/
FoamFile
{
    version     2.0;
    format      ascii;
    class       volScalarField;
    location    "0.35";
    object      p;
}
// * * * * * * * * * * * * * * * * * * * * * * * * * * * * * * * * * * * * * //

dimensions      [0 2 -2 0 0 0 0];

internalField   nonuniform List<scalar> 
35840
(
79.3858804
64.7415749
55.6765857
51.3562155
48.4053102
46.0659447
44.2258708
42.7108778
41.3849433
40.177791
39.0520414
37.9847748
36.9613095
35.9719603
35.0099271
34.0701224
33.1485739
32.2420959
31.348105
30.4645063
29.5896076
28.7220651
27.8608419
27.0051718
26.154529
25.3086007
24.4672602
23.6305404
72.5058811
62.1001434
54.9145571
51.1346794
48.3656924
46.0831617
44.2630729
42.7581898
41.4342503
40.2240992
39.0937372
38.0216174
36.9934724
35.9998122
35.0339198
34.0907073
33.1661632
32.2570632
31.3607868
30.4751929
29.5985501
28.7294862
27.8669432
27.0101388
26.1585345
25.3118078
24.4698243
23.63261
69.3152939
60.5511567
54.1972827
50.6955384
48.1109841
45.9542278
44.2063091
42.7442088
41.4457449
40.2496912
39.1265153
38.0575242
37.0301137
36.0358248
35.0685641
34.1235879
33.1970646
32.2858583
31.387389
30.4995419
29.6206024
28.7492079
27.8843118
27.0251477
26.1711983
25.3221665
24.477947
23.6385971
67.6983158
59.3628612
53.464546
50.2380985
47.845505
45.827797
44.1679341
42.7581075
41.4898347
40.3099253
39.1941242
38.1273079
37.0991215
36.1024775
35.1320851
34.1836309
33.2534873
32.3385953
31.4363887
30.5447395
29.6619134
28.7865375
27.9175629
27.0542342
26.19606
25.3427825
24.4943477
23.650873
66.5977207
58.3949644
52.7902978
49.8059809
47.5841216
45.6947296
44.1263025
42.776338
41.545248
40.3871681
39.2829656
38.2211299
37.1937875
36.1954868
35.2219743
34.2695631
33.3349788
32.4153436
31.5081701
30.6113523
29.7231552
28.842202
27.9674459
27.0981486
26.2338546
25.3743621
24.5196913
23.6700489
65.8001714
57.6684233
52.234493
49.4144257
47.3228974
45.540783
44.0571708
42.7690547
41.5808094
40.4513919
39.3655266
38.3146521
37.293116
36.2970703
35.3233754
34.3690929
33.4314358
32.5078303
31.5959712
30.6938559
29.7998129
28.9125078
28.030933
27.1544001
26.2825219
25.4151865
24.5525259
23.6948781
65.2011079
57.1103223
51.7751699
49.0641098
47.0709224
45.375532
43.9648547
42.7341755
41.5892565
40.4916727
39.4286072
38.3935698
37.3825912
36.3931257
35.4230019
34.4699812
33.5317701
32.6061341
31.6909955
30.784505
29.8850989
28.9915231
28.1028471
27.2184695
26.338109
25.4617851
24.5897882
23.7226394
64.7347994
56.6683389
51.3943062
48.7575039
46.8378098
45.2107875
43.860306
42.6798271
41.5752675
40.5093835
39.4707515
38.4542032
37.4569179
36.4772872
35.5138727
34.5649927
33.6287646
32.703251
31.7865824
30.877061
29.9732335
29.0739357
28.1783298
27.2859223
26.396566
25.5104483
24.6280642
23.7501736
64.3630827
56.3124315
51.0785561
48.4931939
46.6279886
45.0542886
43.7527822
42.6150903
41.5466868
40.5106728
39.4963013
38.499176
37.5172045
36.5494032
35.5948418
34.6522365
33.7200052
32.7964283
31.879792
30.968509
30.0612052
29.1567901
28.2545093
27.3539779
26.4551965
25.558548
24.6647749
23.7749333
64.0621966
56.0224382
50.8160934
48.2671831
46.442702
44.9106974
43.6489685
42.5474159
41.5108312
40.502207
39.511015
38.5332424
37.5672126
36.61232
35.6679531
34.7330813
33.8063111
32.8860523
31.970677
31.0586463
30.1486175
29.2395344
28.3306966
27.421812
26.5130296
25.6049494
24.6986033
23.7954053
63.8162733
55.7843234
50.5975918
48.0752471
46.2816782
44.7825344
43.5532225
42.48215
41.4733727
40.4895492
39.5200914
38.5611048
37.6110988
36.6696557
35.7363268
34.8102074
33.8899857
32.9741135
32.0609663
31.1489816
30.2367839
29.3232934
28.4078173
27.4901256
26.5705049
25.649786
24.7293342
23.810997
63.6142444
55.5880986
50.4158398
47.9134049
46.1437351
44.6707959
43.468111
42.4228539
41.4383838
40.476933
39.5276997
38.5867366
37.6525777
36.7248488
35.8031386
34.8865568
33.9737766
33.0631998
32.1531169
31.241858
30.327934
29.4101645
28.4877969
27.5606117
26.6290077
25.6940549
24.7575016
23.8217209
63.4480801
55.42639
50.2651538
47.7780522
46.0272438
44.5755234
43.3949679
42.3717636
41.4086552
40.4674352
39.5370159
38.6132965
37.6947275
36.7808742
35.8712628
34.964925
34.0604286
33.1560312
32.2498449
31.3399952
30.4247769
29.5028078
28.5731809
27.6356097
26.6905577
25.7393314
24.7841153
23.827924
63.3117364
55.2935675
50.1409768
47.6660046
45.9304136
44.4961846
43.3342929
42.3301539
41.3859962
40.4632005
39.5503738
38.6432105
37.7400116
36.84021
35.9431963
35.0478486
34.1525433
33.2553033
32.3539614
31.4463243
30.5303457
29.6043081
28.6670182
27.7180064
26.7577187
25.7876736
24.8105458
23.8301382
63.2005086
55.1851971
50.0395792
47.5744586
45.8514281
44.4319023
43.286021
42.2986076
41.3714739
40.4656388
39.5694159
38.6782786
37.7903448
36.9048721
36.0210668
35.1375892
34.2525507
33.3636519
32.4683379
31.563966
30.647994
29.7181957
28.7729078
27.8113033
26.8336746
25.8416879
24.8385542
23.8290482
63.1106185
55.0976828
49.9578395
47.5009288
45.7885059
44.3815951
43.2497024
42.2772049
41.3655901
40.4755752
39.5952123
38.7197617
37.8471514
36.9764489
36.1066425
35.2361301
34.3626989
33.4836436
32.5959087
31.6962532
30.7814513
29.8485416
28.8951371
27.919795
26.9224301
25.904722
24.870436
23.8255433
63.0389426
55.0280258
49.8930853
47.4431863
45.739923
44.3440578
43.2246179
42.2656506
41.3684035
40.4933562
39.6283433
38.7684403
37.911404
37.0561117
36.2013242
35.345156
34.4850264
33.6177509
32.7396604
31.8467511
30.9348881
30.000084
29.0388789
28.0488331
27.0291225
25.9811808
24.9092759
23.8208361
62.9828286
54.9736605
49.8429776
47.3992034
45.7040137
44.3180065
43.2098504
42.2633576
41.379612
40.5189203
39.6689546
38.8246531
37.9836313
37.1446004
36.306113
35.4660029
34.6213017
33.768292
32.9025868
32.0192465
31.1129647
30.1783616
29.2104305
28.2051775
27.1604624
26.0769967
24.959346
23.8166682
62.93997
54.9323409
49.8054274
47.3671089
45.6791637
44.3021018
43.2043296
42.2695019
41.3986061
40.5518445
39.7167939
38.888306
38.0639046
37.2421885
36.4215481
35.5995717
34.7729185
33.9373173
33.0875848
32.2176797
31.3208351
30.3898313
29.4174856
28.3974453
27.3253441
26.2003177
25.0267127
23.8156262
62.9083205
54.902062
49.7785373
47.3451541
45.6638011
44.2949623
43.2068604
42.2830554
41.4245055
40.5913806
39.7712235
38.958864
38.15181
37.3486249
36.547616
35.7462032
34.9407373
34.1264272
33.2972669
32.4459842
31.5640632
30.6419285
29.6694139
28.6366746
27.5357032
26.3625607
25.1202239
23.8216626
62.886035
54.8810068
49.7605602
47.3316885
45.6563902
44.2951737
43.2161397
42.3028159
41.4561944
40.6364706
39.8312224
39.035341
38.2464095
37.4630594
36.6836324
35.9055089
35.1248631
34.3364991
33.5336535
32.7077807
31.8483834
30.9429925
29.9774797
28.9369691
27.8076752
26.5800428
25.2532952
23.8413527
62.8714332
54.8675116
49.7498741
47.3251467
45.6554304
44.3012937
43.2307798
42.3274407
41.4923394
40.6857599
39.8953954
39.1162865
38.3461976
37.5839584
36.8281043
36.0761653
35.3243564
34.5673072
33.797706
33.0058577
32.1792055
31.3019308
30.3548625
29.3160967
28.1629282
26.8759753
25.4461365
23.8855256
62.8629781
54.8600461
49.7449679
47.3240439
45.6594555
44.3118721
43.2493428
42.3554642
41.5314108
40.7376253
39.9619888
39.1997822
38.4490684
37.7090281
36.9785878
36.2556813
35.5368808
34.8170203
34.0886588
33.3413483
32.5607154
31.7274373
30.816344
29.7961446
28.6307186
27.2837109
25.7284236
23.9683497
62.8592747
54.857206
49.7444351
47.3269737
45.6670557
44.3254851
43.2703559
42.3853243
41.5717262
40.790214
40.0289227
39.2834609
38.5523094
37.8351635
37.1315673
36.4401678
35.7583133
35.0815916
34.403121
33.7124985
32.9943282
32.2263057
31.3769854
30.4037115
29.2517809
27.8571491
26.1567111
24.1239584
62.859062
54.8577098
49.7469862
47.3326356
45.6768996
44.3407471
43.2923385
42.4154152
41.6115028
40.8415009
40.0938503
39.364562
38.6526412
37.958455
37.2823957
36.6241643
35.9823812
35.3540991
34.7339844
34.1129864
33.4762725
32.8001805
32.0480685
31.165198
30.0741371
28.6720485
26.8376018
24.4657177
62.8611822
54.8604195
49.7514725
47.3398403
45.6877437
44.3563375
43.3138571
42.4441438
41.6489265
40.8893703
40.1542531
39.4400363
38.7463263
38.0742846
37.4253507
36.8005992
36.2004331
35.6241762
35.0692898
34.5299439
33.9945148
33.4413552
32.83195
32.100206
31.1385411
29.7811083
27.8210128
24.9988708
62.864622
54.8643532
49.7568871
47.34752
45.6984674
44.3710497
43.3335771
42.4699966
41.6822362
40.9317229
40.2075733
39.506709
38.8293634
38.1775493
37.5538689
36.9609909
36.4015085
35.877752
35.3912836
34.9417718
34.524688
34.1268035
33.7172589
33.2298355
32.5281509
31.3391148
29.2091099
25.2324057
62.8685596
54.8686852
49.7623759
47.3547755
45.7081113
44.3838341
43.3503195
42.4916139
41.7098224
40.9666042
40.2513822
39.5615001
38.8977754
38.2630333
37.6610162
37.0960121
36.5729399
36.0975092
35.6762496
35.3162111
35.0239666
34.8030882
34.6478845
34.5284348
34.3537928
33.8801149
32.3996311
27.0874523
72.6651146
62.2230196
54.9873313
51.1588564
48.3541806
46.0468108
44.2100553
42.6957869
41.3684646
40.1592542
39.0326236
37.965813
36.9436659
35.9560964
34.9960296
34.0581922
33.1385004
32.2337174
31.3412436
30.4589818
29.5852474
28.7187073
27.8583347
27.0033725
26.1533029
25.3078197
24.4668023
23.6302891
64.9453853
59.5511376
54.6302593
51.3564114
48.6856803
46.3730194
44.4785137
42.9074208
41.5347699
40.2904071
39.1376117
38.051614
37.0150035
36.0161259
35.0469703
34.1016697
33.1757435
32.2656902
31.3687269
30.4826213
29.6055869
28.7362138
27.8734167
27.0163927
26.1645877
25.3176661
24.4754828
23.6380546
61.7050093
58.2018522
54.2089822
51.138843
48.604653
46.3969001
44.5434562
42.9819806
41.6095865
40.3615121
39.203378
38.111989
37.0704255
36.0670521
35.0938071
34.1447568
33.2153457
32.3020061
31.4019049
30.5127748
29.6328051
28.7605701
27.8949769
27.0352236
26.1807642
25.331278
24.4866397
23.6468899
60.1285446
57.0459288
53.5324457
50.7425896
48.3977068
46.3304277
44.5609594
43.0426758
41.6914494
40.451826
39.2945293
38.2000547
37.1537298
36.1450381
35.1664414
34.212227
33.2778932
32.3598435
31.4551861
30.5615922
29.6771994
28.8005448
27.9305157
27.0663078
26.2073899
25.3534712
24.5044695
23.6604785
59.0226307
56.0467978
52.847879
50.3284602
48.1574954
46.2139939
44.5330639
43.0726041
41.7571074
40.538369
39.3917862
38.3013099
37.2548391
36.2435671
35.2610143
34.3021002
33.3626744
32.4393138
31.529196
30.630007
29.7398767
28.8573319
27.9812571
27.1108612
26.245645
25.3853699
24.5300243
23.6797873
58.2152611
55.3017563
52.2818018
49.9407571
47.9002949
46.058943
44.460081
43.0605959
41.7879904
40.5987199
39.4716047
38.3931057
37.3531938
36.344682
35.3622532
34.4016249
33.4591785
32.5318296
31.6169627
30.7123864
29.8163053
28.9272977
28.0442956
27.1665635
26.2936748
25.4254835
24.5620921
23.7038122
57.6081078
54.7301914
51.8100085
49.5857969
47.6461281
45.8896787
44.3620859
43.0192044
41.789654
40.6325673
39.5290582
38.4673286
37.438829
36.4376115
35.4593203
34.5003842
33.5576987
32.6285423
31.7105478
30.8016932
29.9003021
29.0050463
28.1149443
27.2293551
26.3479649
25.4707648
24.5980204
23.7302309
57.1348165
54.2773386
51.4179994
49.273459
47.4103403
45.7219722
44.2536091
42.960265
41.7706998
40.645286
39.5665126
38.5237448
37.5094425
36.5185304
35.5473609
34.5929107
33.6524886
32.7236762
31.8043246
30.8925679
29.9868468
29.0859316
28.1889389
27.2953407
26.4049625
25.5179685
24.6348336
23.7563004
56.7574174
53.9132711
51.0937793
49.0042944
47.1981391
45.5634062
44.1436741
42.892823
41.7392046
40.6435815
39.5891531
38.5660006
37.5672417
36.5883868
35.6262807
34.6782915
33.7420255
32.8152839
31.8960739
30.98264
30.0735067
29.1675197
28.2638807
27.3621729
26.4623719
25.5648404
24.670304
23.7798059
56.452075
53.6171604
50.8248927
48.7742995
47.0107877
45.4183433
44.0384579
42.823723
41.7018692
40.6336035
39.6023848
38.5986638
37.6159419
36.6500899
35.6982654
34.7580876
33.8273509
32.9039871
31.9860858
31.0719415
30.1601111
29.2494741
28.3392855
27.4292205
26.5194043
25.6104196
24.7032844
23.7994009
56.2026909
53.3743945
50.6014784
48.5791847
46.8480656
45.2891188
43.9418971
42.757754
41.6637453
40.6202963
39.6108418
38.6259506
37.6592981
36.7069358
35.7661837
34.8347878
33.9106265
32.991671
32.0760146
31.1619293
30.2479382
29.3328944
28.4160603
27.4971737
26.5764975
25.6548442
24.7335659
23.8145007
55.9979775
53.1745909
50.4159328
48.4148228
46.7087349
45.1765681
43.8562753
42.6981196
41.6285034
40.6074732
39.6182809
38.6514477
37.7006706
36.7620444
35.8329278
34.9110847
33.9943782
33.0807284
32.1681455
31.2547938
30.3390808
29.4197583
28.4960272
27.5676334
26.6349501
25.6990287
24.7616048
23.8250441
55.82972
53.0100876
50.2622686
48.2774508
46.5910949
45.0806381
43.782777
42.6468644
41.5987145
40.5979746
39.6276376
38.678079
37.7429137
36.8181787
35.9011744
34.9895883
34.0811767
33.1737182
32.2650456
31.353117
30.4361225
29.5126097
28.5816219
27.6428354
26.6966855
25.7444579
24.7883241
23.8312929
55.6917255
52.8750441
50.135708
48.1637588
46.4933
45.000745
43.7218266
42.6051661
41.5760751
40.5938228
39.6411203
38.7081461
37.7883701
36.8777021
35.9733098
35.0727264
34.1735202
33.2732381
32.369433
31.459743
30.5420144
29.6144568
28.6758231
27.725602
26.764207
25.7931318
24.8150362
23.8337184
55.5791739
52.7648743
50.0323637
48.0708487
46.4134906
44.9359805
43.6733214
42.5735609
41.561599
40.59637
39.6603122
38.7433911
37.8388995
36.9425769
36.0514061
35.162707
34.2737888
33.3818766
32.4841349
31.5777508
30.6600728
29.7287978
28.7822035
27.8194146
26.840683
25.8476436
24.8434874
23.8329844
55.4881996
52.6758716
49.9490006
47.9961648
46.3498526
44.8852438
43.6367932
42.5521085
41.5557649
40.6064168
39.6862588
38.7850524
37.8959054
37.0143665
36.1372075
35.2614937
34.3842125
33.5021832
32.6120704
31.7104627
30.7940224
29.859707
28.9050628
27.9285889
26.9301474
25.911374
24.8760039
23.8300006
55.4156134
52.6049571
49.8828646
47.9374263
46.3006373
44.8473175
43.6115141
42.5405058
41.5586234
40.6243018
39.719535
38.833906
37.9603496
37.0942328
36.2321104
35.370768
34.5068263
33.6366288
32.7562288
31.8614526
30.9480516
30.0119518
29.0496174
28.0585357
27.0378105
25.9888092
24.9157494
23.8260447
55.3587146
52.5495073
49.8315578
47.8925678
46.2641609
44.8209092
43.5965631
42.5381638
41.5698717
40.6499656
39.7602892
38.8902852
38.0327573
37.1829182
36.3371189
35.4918671
34.6434017
33.7875382
32.919616
32.0345279
31.1268537
30.1911215
29.2222372
28.2161125
27.1705048
26.0860206
24.9671381
23.8229816
55.3151622
52.5072347
49.7929498
47.8596915
46.2387961
44.8046742
43.5908685
42.5442594
41.5889055
40.6829912
39.8082644
38.9540938
38.1132044
37.2807001
36.452774
35.6256955
34.7953384
33.9569717
33.1051455
32.2336568
31.3356277
30.4037432
29.4307192
28.4100799
27.3373074
26.2113681
25.036454
23.8235841
55.2828852
52.4761053
49.7651139
47.8370296
46.2229621
44.7972278
43.5932356
42.5577714
41.6148516
40.722624
39.8628202
39.0248023
38.2012808
37.3873289
36.5790646
35.7725976
34.9635028
34.1465397
33.3154475
32.4628042
31.5799919
30.6573419
29.6845733
28.6516792
27.5504239
26.3765898
25.1328499
23.8319861
55.2600227
52.4542826
49.7462835
47.8229198
46.2151178
44.7971548
43.602369
42.5775039
41.6465855
40.767802
39.9229407
39.1014263
38.2960482
37.5019548
36.7153078
35.9321872
35.1480034
34.3571269
33.5525577
32.7256218
31.8657395
30.9603614
29.995237
28.9552833
27.8263863
26.5985359
25.2703278
23.8552041
55.2448842
52.4400905
49.7348248
47.8157896
46.2137605
44.8030215
43.616886
42.6021027
41.6827676
40.8171748
39.9872307
39.1825141
38.3960003
37.623044
36.8600098
36.1031395
35.3479001
34.588509
33.817446
33.0249217
32.1983352
31.3218168
30.3760761
29.3389463
28.1872344
26.9008657
25.4696181
23.9048538
55.2359262
52.4319928
49.7292221
47.814152
46.2174324
44.8133813
43.635335
42.6300948
41.7218724
40.869118
40.0539345
39.2661455
38.4990295
37.7482998
37.0107225
36.2829573
35.5608485
34.8388464
34.1093415
33.3618449
32.5820035
31.7505067
30.8420927
29.8251145
28.6625755
27.3167377
25.7584172
23.9905996
55.231737
52.4285801
49.7280724
47.8166095
46.2247242
44.8267956
43.6562343
42.6599223
41.7622158
40.9217768
40.1209701
39.3499508
38.6024194
37.8746117
37.1639221
36.4677398
35.7827088
35.1040694
34.4248255
33.7346094
33.0181474
32.253268
31.408551
30.4409353
29.2944552
27.9024273
26.1941624
24.1399148
55.2310408
52.4285704
49.7300876
47.8218576
46.2342915
44.8418712
43.6781083
42.6899792
41.8020143
40.9731247
40.1859884
39.4311654
38.7028849
37.9980616
37.3149494
36.6520082
36.007181
35.3772164
34.7567335
34.1368168
33.5028927
32.8315901
32.0863555
31.2120019
30.1298617
28.7341771
26.8905773
24.4908123
55.2327155
52.4308358
49.734114
47.8286981
46.2448893
44.8572921
43.6995262
42.7186731
41.839453
41.0210441
40.2464672
39.5067351
38.7966811
38.1140209
37.4580658
36.8286657
36.2255748
35.6478614
35.0930221
34.5554944
34.0241022
33.4776429
32.8775058
32.1559631
31.201153
29.8340003
27.828713
24.9382073
55.2357919
52.4344032
49.739145
47.8360711
46.2554024
44.8718566
43.7191562
42.7444916
41.8727704
41.0634337
40.2998452
39.5734794
38.8797985
38.2173743
37.5866888
36.9891995
36.426877
35.9018464
35.4158028
34.9688692
34.5572974
34.1687176
33.7727164
33.3009348
32.6070269
31.3700676
29.0591936
24.5334925
55.2394566
52.438451
49.7443316
47.8430841
46.2648766
44.8845193
43.7358222
42.7660764
41.9003566
41.0983371
40.3436903
39.6283131
38.9482526
38.3028946
37.6938649
37.1242479
36.5983564
36.1217324
35.7011254
35.344248
35.0588636
34.8503275
34.7158083
34.629236
34.5023473
34.0659969
32.544093
26.15337
69.7479447
60.9395136
54.5017511
50.8973693
48.2208513
45.9880842
44.1797391
42.6735239
41.3460751
40.1333577
39.0027945
37.9329785
36.9090789
35.9209468
34.9612979
34.0246009
33.1065316
32.2036629
31.3132557
30.4331161
29.5614953
28.697019
27.8386336
26.9855644
26.1372811
25.293468
24.4539964
23.6188982
61.9917074
58.487078
54.4661925
51.3420685
48.7473676
46.48428
44.5845843
42.9874676
41.5895653
40.3242464
39.1551235
38.0573557
37.0127323
36.0086264
35.0362452
34.0891335
33.1623707
32.252138
31.3554334
30.4698772
29.5935834
28.7250737
27.8632146
27.0071687
26.156356
25.3104199
24.4691972
23.6326892
58.7491384
57.2539905
54.2567974
51.31921
48.8309887
46.6539113
44.7639008
43.1413426
41.7181602
40.4330284
39.2480452
38.1378099
37.0834732
36.0715856
35.0927496
34.1401288
33.2085378
32.2939678
31.3932862
30.5040249
29.6242388
28.7524101
27.8873815
27.028304
26.1745958
25.325907
24.4820872
23.6431547
57.1931237
56.1313569
53.64919
51.011808
48.7166835
46.6794202
44.8631632
43.2667823
41.8491396
40.5608418
39.3681094
38.2483803
37.1845866
36.1639215
35.1771028
34.2172581
33.2791015
32.3584909
31.4521608
30.55753
29.6725642
28.7956819
27.9256857
27.0617092
26.2031735
25.3497493
24.5013212
23.6579538
56.0903523
55.130121
52.9814001
50.6392215
48.5253282
46.6098683
44.8774997
43.3320636
41.9430881
40.6701867
39.4842357
38.3656202
37.2995143
36.2745761
35.2823884
34.3166017
33.3722368
32.4453056
31.5326006
30.6315476
29.7400982
28.856654
27.9800094
27.1093062
26.2439935
25.3837903
24.5286487
23.6787159
55.2782409
54.3777216
52.4166543
50.2669065
48.2877114
46.4726966
44.8207322
43.3343117
41.9856972
40.7401384
39.5723223
38.4649224
37.4049408
36.3824982
35.3902198
34.422478
33.4747965
32.5435262
31.6256771
30.7188111
29.8209674
28.9306105
28.0465913
27.1681145
26.2947072
25.4261862
24.5626218
23.7042976
54.6643325
53.7970391
51.9378972
49.9122046
48.0376167
46.3077863
44.7271276
43.2972988
41.9911946
40.7771509
39.6325383
38.5417779
37.4932578
36.4782711
35.4903381
34.5244804
33.5766968
32.6436846
31.7227002
30.8114799
29.9081907
29.0114008
28.1200576
27.2334695
26.3512851
25.4734667
24.6002557
23.7321303
54.1840123
53.3349367
51.5367266
49.5948798
47.7999621
46.1390273
44.6179986
43.2382209
41.9723531
40.7900052
39.6701492
38.5984449
37.5642806
36.5598121
35.5792515
34.6181394
33.6728594
32.7403936
31.8182063
30.9041853
29.9966144
29.0941625
28.1958789
27.3011899
26.4098893
25.5221186
24.6383358
23.759269
53.8002269
52.9627307
51.2039269
49.3195119
47.5836617
45.9771705
44.5053483
43.1687914
41.9394552
40.7872467
39.6919648
38.6400656
37.6216189
36.629383
35.6580742
34.7036213
33.7626955
32.8324872
31.9106078
30.9950493
30.0841745
29.1767245
28.2718324
27.3690358
26.4682802
25.5699084
24.6746331
23.7834874
53.4894553
52.6598217
50.9276498
49.0834698
47.3916545
45.8281972
44.3968828
43.0972096
41.9002989
40.7759044
39.704142
38.6718979
37.6696572
36.6905633
35.7296663
34.7831567
33.8478944
32.9211971
32.0007552
31.0846054
30.1711382
29.259124
28.3477464
27.436633
26.5258774
25.6160403
24.7081268
23.8035335
53.2355931
52.4114975
50.698109
48.8830341
47.2245476
45.6952071
44.2971805
43.0288035
41.860362
40.7612476
39.7115759
38.6983913
37.7123814
36.7468962
35.7971696
34.8595331
33.9309364
33.0087393
32.0906348
31.1746347
30.2590927
29.3427499
28.4247929
27.5049069
26.5833197
25.6608213
24.7387503
23.81894
53.027235
52.2071921
50.5075741
48.7141937
47.0813688
45.5792865
44.2087305
42.9669565
41.8234628
40.7471964
39.7180985
38.7231913
37.7532082
36.8015653
35.8635554
34.9355414
34.0144665
33.0976436
32.1826835
31.2674895
30.3502976
29.4297432
28.5049477
27.5756014
26.6420387
25.7052854
24.767063
23.8297324
52.8560196
52.0390429
50.3498585
48.5731091
46.9604445
45.4804315
44.1327602
42.913754
41.7922055
40.7366091
39.7266489
38.7492175
37.7949851
36.8573299
35.9315034
35.0138058
34.1010824
33.1905091
32.2795206
31.3658132
30.4474036
29.5227212
28.5907256
27.6510325
26.7040344
25.7509879
24.7940473
23.8362169
52.7156138
51.9010273
50.2199893
48.4563425
46.85987
45.3980249
44.0696674
42.8703536
41.7682711
40.7314915
39.7394157
38.7787497
37.8400326
36.9165318
36.0033823
35.0967424
34.1932776
33.2899354
32.3838719
31.4724653
30.5533869
29.624724
28.6851417
27.7340619
26.7718486
25.7999607
24.8210379
23.8388747
52.6010776
51.7884081
50.1139128
48.3608661
46.7776998
45.3310953
44.0192976
42.8372518
41.7526434
40.7331708
39.7579591
38.8135072
37.8901879
36.9811123
36.0812461
35.1865446
34.2934192
33.3985007
32.4985611
31.5905277
30.671572
29.7392638
28.7917858
27.8281881
26.8486638
25.8548045
24.8497768
23.8383486
52.508448
51.6973588
50.0282599
48.2840109
46.7120346
45.2784748
43.9811288
42.814467
41.7457703
40.7424236
39.7833042
38.8547097
37.9468368
37.0526205
36.1668263
35.2851612
34.4037244
33.5187474
32.6265052
31.7233253
30.8056898
29.8704237
28.9149693
27.9377387
26.9385209
25.9188949
24.8825636
23.835492
52.4344601
51.6247081
49.9601722
48.2234042
46.6610526
45.2388864
43.9543852
42.8016594
41.7476756
40.759568
39.8160083
38.9031182
38.0109309
37.1322084
36.2615061
35.3942641
34.5262241
33.6531462
32.7706951
31.8744363
30.959938
30.0229861
29.059927
28.0681417
27.0466372
25.9967012
24.9225044
23.8314671
52.3763558
51.5677625
49.9071735
48.1769093
46.623011
45.2109891
43.9381065
42.7982103
41.758034
40.7845268
39.856206
38.9590585
38.0829872
37.2206071
36.3662833
35.51519
34.662691
33.8040234
32.9341421
32.0476802
31.1390301
30.2025685
29.2330622
28.2262852
27.1798573
26.0942636
24.973906
23.8279207
52.3317511
51.5241832
49.867075
48.1425751
46.5962377
45.1934004
43.9311904
42.803273
41.7762226
40.816869
39.9036351
39.0224266
38.1630732
37.3180922
36.4817024
35.6488447
34.8145262
33.9734452
33.1197732
32.2470492
31.3482023
30.4157492
29.4422338
28.4209883
27.3472842
26.2198858
25.0428466
23.8272067
52.2985443
51.4918989
49.8379087
48.1185959
46.5791192
45.1847083
43.9324199
42.8158072
41.8013539
40.8558359
39.957647
39.0926876
38.2507802
37.4244185
36.6077524
35.7955737
34.9826015
34.163035
33.3302432
32.4765497
31.5931376
30.6701458
29.6970685
28.6636146
27.5611997
26.3852336
25.1380962
23.8325925
52.274853
51.4690474
49.8178798
48.1032836
46.5700927
45.1834787
43.940482
42.8346046
41.8323002
40.9003596
40.017224
39.1688621
38.3451745
37.5387362
36.7437517
35.9549958
35.167037
34.3736995
33.5676273
32.7399012
31.8797383
30.9743643
30.0092206
28.9687846
27.8383386
26.6071644
25.2731855
23.8497361
52.258973
51.4539362
49.8053369
48.0950497
46.5676413
45.1882637
43.9539863
42.8583088
41.8677214
40.9490918
40.0809799
39.2495027
38.4447507
37.6595135
36.888211
36.1257948
35.3669084
34.6052455
33.8329548
33.040023
32.2136508
31.3377045
30.3924575
29.3550289
28.201143
26.9093652
25.4680492
23.8882799
52.2493533
51.4450201
49.7987546
48.0923985
46.570298
45.197614
43.9714825
42.8854533
41.9060987
41.00042
40.1471635
39.3326924
38.5474052
37.7844588
37.0386888
36.305484
35.579892
34.8558752
34.1255378
33.3782154
32.5993908
31.7694664
30.8625763
29.8459011
28.6803793
27.3252862
25.7478204
23.9504912
52.2445843
51.4408913
49.7967287
48.0939272
46.5766533
45.2101002
43.9915
42.9144919
41.9457607
41.0524954
40.213699
39.4160684
38.6504283
37.910468
37.1916685
36.490174
35.8018703
35.1215668
34.4420607
33.7529102
33.038783
32.2772775
31.4362575
30.4709852
29.321855
27.9160346
26.1724479
24.0558568
52.243393
51.4402802
49.7979763
48.0983353
46.5853774
45.2243424
44.0125779
42.9438307
41.9849332
41.1033013
40.2782475
39.4968753
38.7505428
38.0336298
37.3424972
36.6743939
36.02656
35.3954018
34.7754691
34.1579696
33.5285194
32.8637514
32.1264908
31.2593086
30.1782627
28.7684131
26.8760477
24.3799555
52.2446502
51.4420481
49.8013449
48.1044419
46.5952425
45.2390374
44.0332977
42.9718905
42.0218142
41.1507329
40.3382986
39.5720694
38.8440127
38.1493216
37.4854387
36.8510453
36.245268
35.6669654
35.1137917
34.5806796
34.0572048
33.5229066
32.9391418
32.2350696
31.2900848
29.9055016
27.8253078
24.7918635
52.2473814
51.4452028
49.8058297
48.1112061
46.6051462
45.2529949
44.0523412
42.9971731
42.0546566
41.1927027
40.391304
39.6384818
38.9268373
38.2524326
37.6139062
37.0115959
36.4469375
35.9220241
35.439046
34.9992538
34.6008164
34.2341742
33.871866
33.4455042
32.7991058
31.5610011
29.099903
24.0071433
52.2507758
51.4489256
49.8105907
48.1177471
46.6141459
45.2651821
44.0685462
43.0183346
42.0818644
41.2272679
40.4348444
39.6930388
38.9950408
38.3377376
37.720935
37.1466449
36.6187415
36.142932
35.7268678
35.3802269
35.1144956
34.941556
34.8692297
34.8875625
34.9279856
34.7008163
33.2828252
25.8130518
68.5218793
60.1279544
54.0975116
50.7019923
48.149204
45.9903587
44.2122678
42.7110068
41.3772835
40.1539061
39.0119699
37.9319953
36.8998816
35.9055721
34.941587
34.0020854
33.0824173
32.1788637
31.288446
30.4087831
29.5379846
28.6745708
27.8174096
26.9656678
26.1187702
25.2763659
24.4382975
23.6045731
60.8157171
57.7183023
54.1338254
51.2258621
48.7510335
46.5609953
44.6846214
43.0811044
41.6670402
40.3836163
39.1973172
38.0849292
37.0287429
36.0158713
35.0370399
34.0853186
33.1553671
32.2430192
31.3450016
30.4587293
29.5821635
28.7137117
27.8521551
26.9965915
26.1463908
25.3011567
24.4606937
23.6249757
57.596022
56.5220985
54.0014899
51.3016301
48.9360006
46.8302897
44.9521939
43.3046223
41.8481331
40.5321073
39.3205444
38.1888009
37.1180045
36.093867
35.106008
34.1468001
33.2104529
32.2924922
31.389438
30.4985685
29.6177538
28.7453394
27.8800657
27.0210059
26.1675173
25.3192012
24.4758667
23.6374982
56.0672139
55.436605
53.4428009
51.0525481
48.8853632
46.9224794
45.1152109
43.4849561
42.023882
40.6959865
39.4695131
38.3224959
37.2378245
36.2016398
35.2033454
34.2350109
33.2905713
32.3653048
31.455524
30.5583488
29.6715331
28.7933421
27.9224645
27.0579478
26.1991454
25.3456731
24.4973697
23.6542603
54.9807679
54.4545946
52.7988044
50.7107699
48.7291828
46.8891178
45.1640855
43.580581
42.1430191
40.8259938
39.6027609
38.4541414
37.365142
36.323226
35.3184762
34.3433311
33.3919381
32.4596752
31.5428816
30.6386698
29.7447758
28.8594491
27.9813742
27.1096104
26.2435429
25.382839
24.527407
23.6773561
54.1751875
53.7104323
52.2453449
50.3542166
48.5095228
46.7696134
45.1238075
43.5973028
42.1974578
40.9053569
39.6985061
38.5599461
37.47636
36.4365571
35.4315433
34.4543703
33.4996132
32.5629451
31.6408992
30.7307145
29.8302149
28.9377188
28.0519756
27.1721174
26.2976173
25.4282494
24.5640488
23.7052685
53.5628133
53.1325824
51.7706562
50.0055691
48.2667721
46.6121306
45.0372722
43.5666123
42.208074
40.9462492
39.7616876
38.6392082
37.5667988
36.5343782
35.5337877
34.5586621
33.6039962
32.6657708
31.7407406
30.8263035
29.9204041
29.0214629
28.1283288
27.2402429
26.3568069
25.4779483
24.6038818
23.7350635
53.0815838
52.6702999
51.3696053
49.6892774
48.0310891
46.4456371
44.9303744
43.5095677
42.1908316
40.9601774
39.7999683
38.6963184
37.6381796
36.6163018
35.6231943
34.6529826
33.701018
32.7635438
31.8375052
30.9204384
30.0103946
29.1058892
28.2058696
27.3096943
26.4171113
25.5282309
24.6434888
23.7635972
52.6958892
52.296598
51.0352722
49.4127334
47.8141555
46.2834076
44.8174731
43.4399878
42.1577766
40.95716
39.8214366
38.7375675
37.6951752
36.6855977
35.7018426
34.7384174
33.7909515
32.8558878
31.930311
31.0118537
30.0986392
29.1892489
28.2827092
27.378486
26.4764769
25.5769931
24.6807261
23.7886954
52.3829757
51.9917892
50.7569123
49.1746447
47.6203574
46.1328564
44.7076406
43.3672804
42.1176833
40.9449915
39.8328702
38.7687445
37.742651
36.7463075
35.7730574
34.8176724
33.8759714
32.9445236
32.0204908
31.1015482
30.185843
29.2719817
28.359037
27.4465615
26.5345971
25.6236702
24.7147639
23.8092621
52.1270844
51.7415783
50.5252537
48.9719811
47.4511128
45.9978822
44.6061744
43.2973829
42.0765076
40.9292958
39.8394296
38.7945083
37.7847715
36.802143
35.8401548
34.8937254
33.958768
33.0318967
32.1102775
31.1915606
30.2738552
29.3557369
28.4362777
27.5150838
26.5923283
25.6687644
24.7457074
23.8249776
51.9169395
51.5355729
50.3327891
48.8010443
47.3058293
45.8799477
44.5159017
43.2339713
42.038302
40.9141638
39.8450646
38.8185865
37.8250144
36.8563395
35.906158
34.969427