/*--------------------------------*- C++ -*----------------------------------*\
| =========                 |                                                 |
| \\      /  F ield         | foam-extend: Open Source CFD                    |
|  \\    /   O peration     | Version:     4.1                                |
|   \\  /    A nd           | Web:         http://www.foam-extend.org         |
|    \\/     M anipulation  |                                                 |
\*---------------------------------------------------------------------------*/
FoamFile
{
    version     2.0;
    format      ascii;
    class       surfaceScalarField;
    location    "0.35";
    object      phi;
}
// * * * * * * * * * * * * * * * * * * * * * * * * * * * * * * * * * * * * * //

dimensions      [0 3 -1 0 0 0 0];

internalField   nonuniform List<scalar> 
102656
(
0.000395260992
5.30266915e-05
5.17123163e-05
0.000281609527
5.82612977e-05
5.53901668e-05
0.000200388112
4.23599858e-05
3.88614286e-05
0.000148889878
2.74478924e-05
2.40503406e-05
0.000117042747
1.73739378e-05
1.44731915e-05
9.68257181e-05
1.12257511e-05
8.99127752e-06
8.35610744e-05
7.39750129e-06
5.86714175e-06
7.46503313e-05
4.89445889e-06
4.01628375e-06
6.8482008e-05
3.24840887e-06
2.91991407e-06
6.40405672e-05
2.16918373e-06
2.27225706e-06
6.07156506e-05
1.45123753e-06
1.87367932e-06
5.81427751e-05
9.63617559e-07
1.60925847e-06
5.60979316e-05
6.26506204e-07
1.41833808e-06
5.44392323e-05
3.8970075e-07
1.26899952e-06
5.30738148e-05
2.20968185e-07
1.1444505e-06
5.19381488e-05
9.96193996e-08
1.03604799e-06
5.0986486e-05
1.23165535e-08
9.39347722e-07
5.01844318e-05
-4.98187063e-08
8.51874505e-07
4.95050864e-05
-9.27788521e-08
7.72125833e-07
4.89264934e-05
-1.20523351e-07
6.99117992e-07
4.84301991e-05
-1.35811752e-07
6.32107597e-07
4.80003848e-05
-1.40695653e-07
5.70511405e-07
4.76232874e-05
-1.36779015e-07
5.13877824e-07
4.72868094e-05
-1.25380612e-07
4.61859999e-07
4.69802752e-05
-1.07664371e-07
4.14199704e-07
4.66942883e-05
-8.47259552e-08
3.70713939e-07
4.64206511e-05
-5.76424347e-08
3.31280689e-07
-2.74925479e-08
2.95824405e-07
4.61523201e-05
0.000461998915
2.77116151e-05
6.331616e-05
0.000392853483
5.22457662e-05
7.51609625e-05
0.000323886675
5.01979229e-05
6.11288694e-05
0.000266759283
4.0482005e-05
4.4093278e-05
0.000223839693
3.04894566e-05
2.98040698e-05
0.000193125171
2.23540767e-05
1.95861948e-05
0.00017128822
1.62944175e-05
1.29400339e-05
0.000155545694
1.18559186e-05
8.78106599e-06
0.00014396065
8.61256632e-06
6.22088665e-06
0.000135221526
6.2565605e-06
4.65174738e-06
0.000128457347
4.54579681e-06
3.66962032e-06
0.000123098833
3.29551865e-06
3.02661474e-06
0.000118770596
2.37288978e-06
2.58185496e-06
0.000115219621
1.68430425e-06
2.25637393e-06
0.00011227107
1.16446552e-06
2.00505625e-06
0.000109800504
7.68429376e-07
1.80175799e-06
0.00010771633
4.6544937e-07
1.63104447e-06
0.000105948539
2.34449448e-07
1.48352573e-06
0.000104441714
6.08224262e-08
1.35322593e-06
0.000103150917
-6.58264914e-08
1.23610327e-06
0.000102038826
-1.53041091e-07
1.12932293e-06
0.00010107366
-2.06413446e-07
1.03088606e-06
0.000100227844
-2.30344372e-07
9.39383912e-07
9.9477171e-05
-2.28523853e-07
8.53818502e-07
9.88002559e-05
-2.04249165e-07
7.73501878e-07
9.81781861e-05
-1.60646299e-07
6.97991882e-07
9.75943119e-05
-1.00810792e-07
6.27044164e-07
-2.78811617e-08
5.60570981e-07
9.70341309e-05
0.000447769645
1.52548153e-05
6.46871539e-05
0.000388238203
3.58422719e-05
7.59349353e-05
0.000335580917
4.06675141e-05
6.21876935e-05
0.00029176106
3.76326469e-05
4.66692137e-05
0.000257078172
3.18668725e-05
3.33054704e-05
0.000230708012
2.56772431e-05
2.30469932e-05
0.000210913015
2.01524793e-05
1.59369343e-05
0.000195902239
1.56000255e-05
1.12666688e-05
0.000184289223
1.19715304e-05
8.25405217e-06
0.000175103722
9.13088961e-06
6.31117186e-06
0.000167688914
6.92932687e-06
5.03127877e-06
0.00016160336
5.22847271e-06
4.15260167e-06
0.00015654461
3.91200114e-06
3.51963973e-06
0.000152298442
2.88778605e-06
3.04268783e-06
0.000148708115
2.08566738e-06
2.66912793e-06
0.000145655453
1.45389267e-06
2.36719988e-06
0.000143048759
9.55141585e-07
2.1170041e-06
0.000140814967
5.62819362e-07
1.90542494e-06
0.000138894459
2.57998409e-07
1.72333359e-06
0.000137237421
2.7107383e-08
1.56410664e-06
0.000135801404
-1.39810444e-07
1.42278753e-06
0.000134549719
-2.50321408e-07
1.29559446e-06
0.000133450163
-3.10457065e-07
1.17967047e-06
0.00013247414
-3.25369221e-07
1.07286989e-06
0.0001315961
-2.99814489e-07
9.73606306e-07
0.000130793191
-2.38479982e-07
8.80744268e-07
0.000130045058
-1.46191249e-07
7.93514687e-07
-2.80237715e-08
7.11442665e-07
0.000129333759
0.000440472468
9.95932109e-06
6.48230252e-05
0.000375873746
2.46436682e-05
7.57973249e-05
0.000324700478
3.07170386e-05
6.11237416e-05
0.000286196989
3.08572927e-05
4.52788426e-05
0.000257839279
2.81099147e-05
3.21146672e-05
0.000237173798
2.41823354e-05
2.21603882e-05
0.000221931149
2.00730245e-05
1.53221028e-05
0.000210342416
1.63060568e-05
1.08827021e-05
0.00020120221
1.30597387e-05
8.05199805e-06
0.000193744663
1.034611e-05
6.24232673e-06
0.000187500658
8.11631547e-06
5.05701753e-06
0.000182184673
6.30162003e-06
4.24283868e-06
0.000177615688
4.83119528e-06
3.6497922e-06
0.000173669482
3.64074213e-06
3.19325166e-06
0.000170253273
2.67605445e-06
2.82582305e-06
0.000167292897
1.89375049e-06
2.52051966e-06
0.000164726285
1.26040902e-06
2.26134618e-06
0.000162500043
7.50959888e-07
2.03810259e-06
0.000160567482
3.46899579e-07
1.84366152e-06
0.000158887305
3.46515497e-08
1.67263453e-06
0.00015742262
-1.95862852e-07
1.52073821e-06
0.000156140212
-3.52388419e-07
1.38447554e-06
0.000155009948
-4.41190242e-07
1.26099869e-06
0.000154004347
-4.67768626e-07
1.14800087e-06
0.000153098305
-4.37421108e-07
1.04364982e-06
0.000152268934
-3.55640548e-07
9.46531654e-07
0.000151495521
-2.28376544e-07
8.55598656e-07
-6.21731783e-08
7.70117819e-07
0.000150759553
0.000437877982
7.06306336e-06
6.50182754e-05
0.000368456579
1.78000806e-05
7.62649892e-05
0.000314729383
2.34042746e-05
6.10399584e-05
0.000276412911
2.4788555e-05
4.43852098e-05
0.000250111747
2.36934684e-05
3.07176093e-05
0.000232367129
2.13264496e-05
2.06005029e-05
0.000220182105
1.8452714e-05
1.38053345e-05
0.000211415418
1.55568387e-05
9.51590546e-06
0.000204717379
1.28810764e-05
6.87670238e-06
0.000199292061
1.05123104e-05
5.25911785e-06
0.000194696288
8.46399986e-06
4.24808948e-06
0.000190695541
6.71778564e-06
3.58458236e-06
0.000187167158
5.24204655e-06
3.11753361e-06
0.000184042837
4.0015542e-06
2.76350916e-06
0.000181278434
2.96272057e-06
2.47773837e-06
0.000178839522
2.09615167e-06
2.23651146e-06
0.000176695204
1.37754975e-06
2.02717797e-06
0.000174815889
7.8764826e-07
1.84262796e-06
0.000173172749
3.11627115e-07
1.67841252e-06
0.000171737769
-6.17008078e-08
1.53133326e-06
0.000170483886
-3.40813828e-07
1.39883412e-06
0.000169385092
-5.32328255e-07
1.27873377e-06
0.000168416475
-6.41716156e-07
1.16914334e-06
0.00016755431
-6.7402171e-07
1.06841833e-06
0.000166776154
-6.34426695e-07
9.75162132e-07
0.000166060976
-5.28687708e-07
8.88225458e-07
0.00016538934
-3.63440455e-07
8.06700022e-07
-1.4636042e-07
7.29905062e-07
0.000164743622
0.000436606016
5.27620182e-06
6.51808451e-05
0.00036432345
1.34342644e-05
7.66483814e-05
0.00030825372
1.82414062e-05
6.12325976e-05
0.000268852773
2.00670747e-05
4.41224257e-05
0.000242609287
1.98817144e-05
3.00552396e-05
0.000225727249
1.85101082e-05
1.96983801e-05
0.000214857721
1.65307866e-05
1.27914552e-05
0.000207590244
1.43438335e-05
8.48048316e-06
0.000202404774
1.21867787e-05
5.87976824e-06
0.000198409055
1.01754694e-05
4.33256082e-06
0.000195111911
8.3568295e-06
3.40431558e-06
0.000192261073
6.74280948e-06
2.82581458e-06
0.000189734586
5.32777549e-06
2.44075933e-06
0.000187475444
4.09792878e-06
2.16276778e-06
0.000185455862
3.03669792e-06
1.94560509e-06
0.000183659128
2.12773588e-06
1.76515058e-06
0.000182071211
1.35646151e-06
1.60900516e-06
0.000180677452
7.10712033e-07
1.47069504e-06
0.000179461627
1.8084323e-07
1.34660915e-06
0.000178406025
-2.40554563e-07
1.23445527e-06
0.000177491792
-5.5914309e-07
1.13256272e-06
0.00017669925
-7.79351117e-07
1.03956479e-06
0.000176008303
-9.0503022e-07
9.54260335e-07
0.000175398792
-9.40080373e-07
8.75569491e-07
0.000174850835
-8.89007124e-07
8.02537545e-07
0.000174345197
-7.5739143e-07
7.34341557e-07
0.000173863694
-5.52234098e-07
6.70297284e-07
-2.82139748e-07
6.0986176e-07
0.000173389611
0.000435884151
4.09284254e-06
6.52992078e-05
0.000361910748
1.046888e-05
7.69387869e-05
0.000304146786
1.45080095e-05
6.1497358e-05
0.000263617714
1.6411037e-05
4.41851095e-05
0.000236883189
1.6726479e-05
2.98897596e-05
0.000220031751
1.59990339e-05
1.9362513e-05
0.000209560076
1.46574383e-05
1.23450237e-05
0.000202915676
1.30188724e-05
7.96936189e-06
0.000198470894
1.12924503e-05
5.33911145e-06
0.000195261198
9.59916892e-06
3.78599703e-06
0.000192749504
8.00265589e-06
2.86586864e-06
0.000190655184
6.53308815e-06
2.30404149e-06
0.000188839928
5.20179756e-06
1.9412351e-06
0.000187238989
4.00992271e-06
1.6889445e-06
0.000185822856
2.95355865e-06
1.49927225e-06
0.00018457692
2.02680133e-06
1.3468712e-06
0.000183491382
1.22351451e-06
1.21848396e-06
0.000182556731
5.38291953e-07
1.10707042e-06
0.000181761992
-3.31039229e-08
1.00868591e-06
0.000181094293
-4.93777314e-07
9.20921638e-07
0.000180538904
-8.45850662e-07
8.42095933e-07
0.000180079469
-1.09085228e-06
7.70935939e-07
0.000179698385
-1.23031398e-06
7.06367479e-07
0.0001793772
-1.26635051e-06
6.47455083e-07
0.000179097055
-1.20224061e-06
5.93378178e-07
0.000178839198
-1.04295486e-06
5.43421036e-07
0.000178585556
-7.95562268e-07
4.96969887e-07
-4.69452829e-07
4.53511755e-07
0.000178319358
0.00043544777
3.25425564e-06
6.53908165e-05
0.000360403877
8.34323068e-06
7.71695422e-05
0.000301440096
1.17188968e-05
6.17528929e-05
0.000259976152
1.35271106e-05
4.43478706e-05
0.000232682351
1.40956385e-05
2.99246413e-05
0.000215606015
1.37797244e-05
1.92956458e-05
0.000205164264
1.28889739e-05
1.22102166e-05
0.00019872568
1.16676922e-05
7.78976454e-06
0.000194598155
1.02899044e-05
5.13007149e-06
0.000191771316
8.86879233e-06
3.55721662e-06
0.000189677582
7.47345418e-06
2.62293624e-06
0.000188015911
6.14400896e-06
2.05075068e-06
0.0001866341
4.90259647e-06
1.68101234e-06
0.00018545824
3.76068476e-06
1.4250972e-06
0.000184453283
2.72367406e-06
1.23484127e-06
0.000183601791
1.79377938e-06
1.08451376e-06
0.000182893035
9.71844469e-07
9.60425847e-07
0.000182317773
2.58448597e-07
8.55104338e-07
0.000181865994
-3.45543474e-07
7.64217649e-07
0.000181525967
-8.38784553e-07
6.85033877e-07
0.00018128394
-1.21946286e-06
6.1563849e-07
0.000181124246
-1.48573306e-06
5.54575132e-07
0.000181029507
-1.63622088e-06
5.00645063e-07
0.000180980978
-1.67065135e-06
4.5283041e-07
0.000180959012
-1.59052483e-06
4.10250295e-07
0.000180943679
-1.39975852e-06
3.72136721e-07
0.000180915504
-1.10520335e-06
3.37816129e-07
-7.16941388e-07
3.06698534e-07
0.000180856295
0.000435162745
2.62952822e-06
6.54619822e-05
0.000359405749
6.75196804e-06
7.73482589e-05
0.000299588847
9.57053989e-06
6.19652585e-05
0.000257390511
1.1208948e-05
4.4516499e-05
0.000229586639
1.18782674e-05
3.00212438e-05
0.00021222117
1.18120924e-05
1.93331016e-05
0.00020167015
1.12304686e-05
1.22095254e-05
0.000195255172
1.03178457e-05
7.76482608e-06
0.000191242462
9.2141569e-06
5.08845771e-06
0.000188590233
8.01860456e-06
3.50241775e-06
0.000186709528
6.79831238e-06
2.55584654e-06
0.000185285046
5.59711148e-06
1.97137966e-06
0.000184154835
4.4431419e-06
1.58966544e-06
0.000183238284
3.35455747e-06
1.32267776e-06
0.000182495881
2.34336777e-06
1.12270828e-06
0.0001819074
1.41798592e-06
9.64273683e-07
0.000181460531
5.84946529e-07
8.33766859e-07
0.000181145264
-1.49966866e-07
7.23681709e-07
0.000180951246
-7.81133209e-07
6.29607035e-07
0.000180866517
-1.30271834e-06
5.48661929e-07
0.000180877011
-1.70878025e-06
4.78823069e-07
0.000180966399
-1.99364e-06
4.18519074e-07
0.000181116159
-2.15244188e-06
3.66461099e-07
0.000181305848
-2.18189724e-06
3.21556117e-07
0.000181513601
-2.0811351e-06
2.82858182e-07
0.000181716846
-1.85254385e-06
2.49540355e-07
0.000181893251
-1.5024668e-06
2.20858967e-07
-1.04163267e-06
1.96131428e-07
0.000182021812
0.000434966221
2.14636321e-06
6.55169444e-05
0.000358714896
5.5173516e-06
7.74859414e-05
0.000298280983
7.86943156e-06
6.21350216e-05
0.000255512032
9.31209155e-06
4.46658081e-05
0.000227270704
9.99121498e-06
3.01283804e-05
0.000209615363
1.00636501e-05
1.94037847e-05
0.000198903849
9.68501569e-06
1.22569669e-05
0.000192430292
8.9928238e-06
7.79857991e-06
0.0001884337
8.09715834e-06
5.11359065e-06
0.000185850009
7.08150058e-06
3.52079582e-06
0.000184074182
6.00686701e-06
2.56727209e-06
0.000182779896
4.91654713e-06
1.97484979e-06
0.000181797686
3.84104017e-06
1.58431166e-06
0.000181041863
2.80226187e-06
1.3081179e-06
0.000180469615
1.8165857e-06
1.09902952e-06
0.000180058713
8.96978201e-07
9.31909221e-07
0.000179795745
5.45398405e-08
7.93374117e-07
0.000179670173
-7.00477556e-07
6.7608153e-07
0.000179671338
-1.35794906e-06
5.75650479e-07
0.000179786961
-1.90758793e-06
4.89246479e-07
0.000180002375
-2.33904918e-06
4.1485482e-07
0.000180300139
-2.64231013e-06
3.50905463e-07
0.000180659943
-2.80836832e-06
2.96122662e-07
0.000181058798
-2.83017885e-06
2.49426705e-07
0.000181471548
-2.70375492e-06
2.09870484e-07
0.000181871719
-2.42932095e-06
1.76606043e-07
0.000182232719
-2.01233952e-06
1.48873506e-07
-1.46420196e-06
1.25981975e-07
0.000182529307
0.00043482548
1.76135774e-06
6.5559526e-05
0.000358218919
4.53129493e-06
7.75926175e-05
0.000297328627
6.49046685e-06
6.22692575e-05
0.000254115082
7.73527758e-06
4.47903596e-05
0.000225507483
8.37202671e-06
3.02267878e-05
0.000207584078
8.50869095e-06
1.94783648e-05
0.000196697377
8.25557406e-06
1.23161438e-05
0.000190126667
7.71444832e-06
7.84908615e-06
0.000186093982
6.97065732e-06
5.15918528e-06
0.000183520026
6.09259336e-06
3.56286344e-06
0.000181787884
5.13338889e-06
2.60562019e-06
0.000180562594
4.13323655e-06
2.00860021e-06
0.000179668602
3.12246032e-06
1.61257067e-06
0.000179016085
2.12451347e-06
1.33026472e-06
0.000178559611
1.1583127e-06
1.11474671e-06
0.000178275488
2.39982083e-07
9.41118792e-07
0.000178149673
-6.15844693e-07
7.96199196e-07
0.000178171472
-1.39501294e-06
6.72735205e-07
0.000178330282
-2.08318008e-06
5.66420871e-07
0.000178613765
-2.66557235e-06
4.74500867e-07
0.000179006766
-3.12706528e-06
3.9501533e-07
0.000179490651
-3.45265205e-06
3.26456571e-07
0.000180042995
-3.62830093e-06
2.67589151e-07
0.000180637616
-3.6421775e-06
2.17377767e-07
0.000181245069
-3.48614781e-06
1.74939921e-07
0.000181833655
-3.15740549e-06
1.39498847e-07
0.000182370962
-2.65999389e-06
1.10348401e-07
-2.0059197e-06
8.68193882e-08
0.00018282586
0.00043472132
1.44728139e-06
6.55927567e-05
0.000357851107
3.72557662e-06
7.76759317e-05
0.00029661523
5.35109498e-06
6.23752504e-05
0.000253051827
6.40696688e-06
4.48917143e-05
0.000224139675
6.9730878e-06
3.03110922e-05
0.000205976521
7.12541049e-06
1.95464342e-05
0.000194916137
6.9425367e-06
1.23734224e-05
0.000188230838
6.49947662e-06
7.90027061e-06
0.00018413277
5.86166932e-06
5.20705596e-06
0.000181532811
5.08404305e-06
3.60850908e-06
0.000179805774
4.2114553e-06
2.64896972e-06
0.000178610296
3.27965569e-06
2.0490583e-06
0.00017776612
2.31714996e-06
1.64948636e-06
0.00017718018
1.3473154e-06
1.36313704e-06
0.000176805058
3.90182417e-07
1.14325188e-06
0.000176616101
-5.36164515e-07
9.65103183e-07
0.000176599072
-1.41440386e-06
8.15587328e-07
0.000176743612
-2.22703025e-06
6.87476957e-07
0.000177039627
-2.95574674e-06
5.76552027e-07
0.000177475115
-3.58115684e-06
4.80096196e-07
0.000178034726
-4.08285828e-06
3.9618149e-07
0.000178698729
-4.44000154e-06
3.23346247e-07
0.00017944236
-4.63235714e-06
2.60425606e-07
0.000180235617
-4.64190472e-06
2.06470441e-07
0.000181043662
-4.45488268e-06
1.60689505e-07
0.000181827975
-4.06411913e-06
1.22400933e-07
0.000182548326
-3.47133181e-06
9.09871988e-08
-2.68894897e-06
6.58474323e-08
0.000183165509
0.000434641905
1.18641471e-06
6.5618962e-05
0.000357570189
3.05556304e-06
7.77417308e-05
0.000296066268
4.395527e-06
6.245949e-05
0.000252223401
5.27607905e-06
4.49737558e-05
0.000223057134
5.7578874e-06
3.03814681e-05
0.000204682193
5.89504378e-06
1.96053082e-05
0.000193456521
5.74379698e-06
1.24244118e-05
0.00018665008
5.35923776e-06
7.94667937e-06
0.000182469782
4.79102192e-06
5.25094556e-06
0.000179820609
4.08248202e-06
3.65073374e-06
0.000178072028
3.2705141e-06
2.68952113e-06
0.000176878316
2.38583426e-06
2.08753288e-06
0.000176055928
1.45411122e-06
1.68542695e-06
0.000175509575
4.97491445e-07
1.39617627e-06
0.000175190621
-4.64028477e-07
1.17316466e-06
0.000175074104
-1.41138452e-06
9.91736282e-07
0.000175146266
-2.32534708e-06
8.38780673e-07
0.000175397728
-3.18562825e-06
7.07136335e-07
0.000175819566
-3.97017676e-06
5.92591604e-07
0.000176400773
-4.65479841e-06
4.9243417e-07
0.000177126358
-5.21320437e-06
4.04760342e-07
0.000177975822
-5.61761498e-06
3.28150286e-07
0.000178922004
-5.84004063e-06
2.61501078e-07
0.00017993047
-5.85432239e-06
2.03951506e-07
0.000180959681
-5.63891377e-06
1.54819688e-07
0.000181962239
-5.18022657e-06
1.13549602e-07
0.000182887388
-4.47613403e-06
7.9654433e-08
-3.53896939e-06
5.26491404e-08
0.000183684759
0.000434579654
9.66850117e-07
6.56399112e-05
0.000357349625
2.49115479e-06
7.77944389e-05
0.000295632676
3.58524772e-06
6.25272292e-05
0.000251562456
4.30580932e-06
4.50404908e-05
0.000222182014
4.69849277e-06
3.04398373e-05
0.000203620083
4.80175795e-06
1.96552171e-05
0.000192239692
4.65581592e-06
1.2468372e-05
0.000185310971
4.30087948e-06
7.98707873e-06
0.000181038531
3.77412315e-06
5.28933833e-06
0.000178324171
3.10904868e-06
3.68779228e-06
0.00017653423
2.33519802e-06
2.72525694e-06
0.000175320344
1.47807095e-06
2.12164923e-06
0.000174497009
5.59867447e-07
1.71757767e-06
0.000173967763
-3.99371235e-07
1.42610912e-06
0.000173683647
-1.38061158e-06
1.20069864e-06
0.000173620287
-2.36469474e-06
1.01666992e-06
0.000173765263
-3.33129757e-06
8.609734e-07
0.000174111105
-4.25791678e-06
7.26446177e-07
0.000174651084
-5.11901225e-06
6.08857005e-07
0.000175376237
-5.8854357e-06
5.0548348e-07
0.000176272917
-6.52431349e-06
4.14429024e-07
0.000177320593
-6.99959374e-06
3.34302506e-07
0.000178489977
-7.27348611e-06
2.6406143e-07
0.000179741715
-7.30899921e-06
2.02939246e-07
0.000181026075
-7.0736648e-06
1.50390225e-07
0.000182284138
-6.54431834e-06
1.06029554e-07
0.000183450889
-5.71244438e-06
6.95593623e-08
-4.58913161e-06
4.06708173e-08
0.000184460381
0.000434529545
7.80370852e-07
6.56569348e-05
0.000357171797
2.01154164e-06
7.78373627e-05
0.000295281351
2.89316168e-06
6.25825331e-05
0.000251022378
3.46939886e-06
4.50953844e-05
0.000221458801
3.77360416e-06
3.04884665e-05
0.000202730616
3.83254178e-06
1.9697401e-05
0.000191205856
3.67463275e-06
1.25059431e-05
0.000184156066
3.32884278e-06
8.02182577e-06
0.000179785298
2.82242467e-06
5.32246614e-06
0.00017699394
2.18056486e-06
3.71984141e-06
0.0001751468
1.42609248e-06
2.75624462e-06
0.000173894228
5.79305264e-07
2.15133816e-06
0.000173049871
-3.41498836e-07
1.74572292e-06
0.000172517085
-1.31909794e-06
1.45251196e-06
0.000172247606
-2.33625581e-06
1.22512231e-06
0.000172218618
-3.3746476e-06
1.03894141e-06
0.000172420116
-4.41372707e-06
8.80930326e-07
0.000172847808
-5.42949755e-06
7.43888403e-07
0.000173498602
-6.39336007e-06
6.23553528e-07
0.000174367169
-7.27118026e-06
5.17177924e-07
0.000175442807
-8.02280317e-06
4.22851154e-07
0.000176706358
-8.60234204e-06
3.39197387e-07
0.000178127252
-8.95961628e-06
2.65235849e-07
0.000179661082
-9.04314397e-06
2.00314684e-07
0.000181248353
-8.80499982e-06
1.44064867e-07
0.000182815264
-8.20757043e-06
9.63404818e-08
0.000184277389
-7.23169414e-06
5.71252235e-08
-5.88487006e-06
2.63887603e-08
0.000185546739
0.000434488162
6.21185701e-07
6.56710238e-05
0.000357024723
1.60202695e-06
7.7872956e-05
0.00029498952
2.29988221e-06
6.26284837e-05
0.000250570462
2.74722609e-06
4.5141231e-05
0.000220847591
2.96703955e-06
3.05294358e-05
0.000201969858
2.97698246e-06
1.9733293e-05
0.000190309769
2.79656007e-06
1.25381605e-05
0.000183140764
2.4460845e-06
8.05176348e-06
0.000178667269
1.94482703e-06
5.35109144e-06
0.000175789358
1.31087192e-06
3.74760396e-06
0.000173871368
5.60919373e-07
2.78316246e-06
0.000172563299
-2.89884019e-07
2.17725771e-06
0.000171678855
-1.22751807e-06
1.77046279e-06
0.000171122151
-2.23820086e-06
1.47580648e-06
0.000170846504
-3.30737591e-06
1.24676666e-06
0.000170831677
-4.4185883e-06
1.05876759e-06
0.000171071372
-5.5521458e-06
8.98723017e-07
0.000171566048
-6.6835673e-06
7.59394048e-07
0.000172318177
-7.78195214e-06
6.36462414e-07
0.000173328328
-8.80845587e-06
5.27124037e-07
0.00017459122
-9.71513166e-06
4.29436854e-07
0.000176091455
-1.04446061e-05
3.42029018e-07
0.000177799023
-1.09311646e-05
2.63979904e-07
0.000179665076
-1.11039735e-05
1.94776525e-07
0.000181618944
-1.0893155e-05
1.34288122e-07
0.000183567804
-1.02391463e-05
8.27158898e-08
0.00018540064
-9.10501165e-06
4.04813136e-08
-7.49006359e-06
8.00869711e-09
0.000186997825
0.000434453142
4.85133638e-07
6.56829113e-05
0.000356900107
1.2520339e-06
7.79030294e-05
0.000294741282
1.791325e-06
6.26673838e-05
0.000250183531
2.12478265e-06
4.5180195e-05
0.000220319569
2.26653342e-06
3.05644681e-05
0.000201305421
2.22693374e-06
1.97641964e-05
0.000189517367
2.01855728e-06
1.25660562e-05
0.000182230752
1.65491704e-06
8.07778244e-06
0.000177650796
1.14874348e-06
5.37603858e-06
0.000174677833
5.11971298e-07
3.77186308e-06
0.000172676315
-2.44370196e-07
2.80680731e-06
0.000171296504
-1.11027729e-06
2.20020417e-06
0.000170352858
-2.07631647e-06
1.79244402e-06
0.000169750905
-3.13284357e-06
1.4965947e-06
0.00016944631
-4.26897861e-06
1.26619788e-06
0.00016942244
-5.47135086e-06
1.07663205e-06
0.000169678077
-6.72255703e-06
9.14774015e-07
0.000170220297
-7.99909452e-06
7.73307042e-07
0.00017105959
-9.26907088e-06
6.47825433e-07
0.000172205512
-1.04898224e-05
5.3544446e-07
0.000173661829
-1.16056099e-05
4.34160395e-07
0.00017542077
-1.2546128e-05
3.42581476e-07
0.000177456343
-1.32265789e-05
2.59842002e-07
0.000179717308
-1.35505383e-05
1.85599377e-07
0.000182121119
-1.34170181e-05
1.20052598e-07
0.000184551058
-1.27330094e-05
6.39240215e-08
0.000186859552
-1.14318448e-05
1.83384194e-08
-9.49583031e-06
-1.55372349e-08
0.000188880856
0.000434422833
3.69167173e-07
6.56931346e-05
0.000356792156
9.53804137e-07
7.79289079e-05
0.000294525463
1.35708839e-06
6.27009315e-05
0.000249845117
1.59122142e-06
4.52139079e-05
0.000219853966
1.66276977e-06
3.0594914e-05
0.000200713591
1.57612484e-06
1.97911838e-05
0.000188803293
1.33834213e-06
1.25905132e-05
0.000181400077
9.57474882e-07
8.10065724e-06
0.000176710001
4.40801394e-07
5.39801734e-06
0.000173633814
-2.05189504e-07
3.79334749e-06
0.000171536319
-9.74807441e-07
2.82793218e-06
0.000170068413
-1.8631394e-06
2.22076742e-06
0.000169045595
-2.86571635e-06
1.81221666e-06
0.000168375144
-3.9778227e-06
1.51543027e-06
0.000168015655
-5.1933986e-06
1.28390853e-06
0.000167955029
-6.50372061e-06
1.09299544e-06
0.000168198494
-7.89550761e-06
9.29485374e-07
0.000168761737
-9.34829774e-06
7.8595934e-07
0.000169666245
-1.08314718e-05
6.57893201e-07
0.000170934622
-1.23004767e-05
5.42277913e-07
0.000172584822
-1.36928114e-05
4.37001155e-07
0.000174622672
-1.49245907e-05
3.40613108e-07
0.000177032251
-1.58884487e-05
2.52291025e-07
0.000179764618
-1.64548102e-05
1.71905163e-07
0.000182726471
-1.64789945e-05
1.00123026e-07
0.000185772068
-1.58170744e-05
3.84676112e-08
0.000188703622
-1.43525926e-05
-1.08066579e-08
-1.20339762e-05
-4.52483159e-08
0.000191287016
0.000434396084
2.71002313e-07
6.57020821e-05
0.000356696828
7.01513066e-07
7.79515488e-05
0.000294334236
9.89323313e-07
6.27303582e-05
0.000249543604
1.13828494e-06
4.52435691e-05
0.000219435998
1.14858553e-06
3.06217898e-05
0.000200177314
1.01972538e-06
1.98150838e-05
0.000188149132
7.54298011e-07
1.26122248e-05
0.000180629707
3.55910955e-07
8.120989e-06
0.000175825697
-1.72835296e-07
5.41764556e-06
0.000172638135
-8.30340876e-07
3.81271348e-06
0.000170432188
-1.61586576e-06
2.84700419e-06
0.000168859309
-2.52962694e-06
2.23936609e-06
0.000167735943
-3.57258571e-06
1.830235e-06
0.000166971179
-4.74577325e-06
1.53271355e-06
0.000166526787
-6.04927471e-06
1.30026792e-06
0.000166395755
-7.48085689e-06
1.10816866e-06
0.000166590861
-9.03372284e-06
9.43108763e-07
0.000167138556
-1.06935234e-05
7.97530898e-07
0.00016807467
-1.24343273e-05
6.66740892e-07
0.000169439834
-1.42131824e-05
5.47541941e-07
0.000171273226
-1.59638473e-05
4.37644196e-07
0.000173603189
-1.75900323e-05
3.35478962e-07
0.000176433953
-1.89594557e-05
2.40243135e-07
0.00017972823
-1.99011716e-05
1.52084272e-07
0.000183387146
-2.02102814e-05
7.23702197e-08
0.000187232013
-1.9665827e-05
3.88503967e-09
0.000190996608
-1.80679546e-05
-4.92329951e-08
-1.52988762e-05
-8.22075782e-08
0.000194343715
0.000434372104
1.88871094e-07
6.57100283e-05
0.000356611347
4.90642692e-07
7.79716289e-05
0.000294162223
6.81913035e-07
6.27565352e-05
0.000249270991
7.59484373e-07
4.52700325e-05
0.000219055455
7.18294835e-07
3.06458274e-05
0.000199684794
5.53886505e-07
1.98364995e-05
0.000187542138
2.65266188e-07
1.26316871e-05
0.000179906484
-1.477254e-07
8.13928957e-06
0.000174984672
-6.86502318e-07
5.43547887e-06
0.000171677733
-1.35370419e-06
3.8303018e-06
0.000169350841
-2.15327731e-06
2.86430263e-06
0.000167655518
-3.0906554e-06
2.25635084e-06
0.000166408735
-4.17260268e-06
1.84679998e-06
0.000165520993
-5.406739e-06
1.54870744e-06
0.000164956952
-6.80071336e-06
1.31547938e-06
0.000164714653
-8.36085546e-06
1.12229727e-06
0.000164815118
-1.00899037e-05
9.55715104e-07
0.000165297286
-1.19836729e-05
8.07982171e-07
0.000166214743
-1.40259438e-05
6.74159273e-07
0.00016763204
-1.61812453e-05
5.50766024e-07
0.000169618634
-1.83856659e-05
4.35225566e-07
0.000172238166
-2.05353112e-05
3.25746678e-07
0.000175531111
-2.24738967e-05
2.21495573e-07
0.000179489145
-2.39821958e-05
1.22989842e-07
0.00018402131
-2.47751312e-05
3.2683827e-08
0.000188917382
-2.45173043e-05
-4.45957789e-08
0.000193819987
-2.28694251e-05
-1.01134503e-07
-1.95850655e-05
-1.27565305e-07
0.00019823374
0.000434350373
1.21338727e-07
6.57171606e-05
0.000356533888
3.17518102e-07
7.79896107e-05
0.000294005893
4.29855151e-07
6.27800537e-05
0.000249022053
4.49448032e-07
4.52938768e-05
0.000218705724
3.67099767e-07
3.06675239e-05
0.00019922846
1.75321009e-07
1.98558291e-05
0.000186974305
-1.29895144e-07
1.26493165e-05
0.000179222409
-5.51852729e-07
8.15602289e-06
0.000174179292
-1.09513267e-06
5.45174651e-06
0.000170745481
-1.76615614e-06
3.8462619e-06
0.000168285434
-2.57331563e-06
2.88008511e-06
0.000166449996
-3.52715516e-06
2.27193654e-06
0.000165055799
-4.64049034e-06
1.86208505e-06
0.000164013777
-5.92824913e-06
1.56353133e-06
0.00016329045
-7.40699278e-06
1.32960632e-06
0.000162888118
-9.0938908e-06
1.13536688e-06
0.000162835771
-1.10047311e-05
9.67174556e-07
0.000163185558
-1.31504643e-05
8.17004754e-07
0.000164011618
-1.55315583e-05
6.79555384e-07
0.000165408673
-1.81292067e-05
5.50905816e-07
0.000167487449
-2.0892446e-05
4.28004468e-07
0.000170364121
-2.37206346e-05
3.08651273e-07
0.000174140018
-2.64416726e-05
1.9187789e-07
0.000178866005
-2.87868695e-05
7.86856738e-08
0.000184488659
-3.03709139e-05
-2.6872026e-08
0.000190781806
-3.06938124e-05
-1.16639712e-07
0.000197274194
-2.91857253e-05
-1.76089596e-07
-2.53520579e-05
-1.86807935e-07
0.000203227993
0.00043433058
6.71590412e-08
6.57236008e-05
0.000356463354
1.78952786e-07
7.80057921e-05
0.00029386314
2.2878375e-07
6.28012864e-05
0.000248793737
2.03389075e-07
4.53154619e-05
0.000218383029
9.06320381e-08
3.06871758e-05
0.000198804249
-1.19300503e-07
1.98734011e-05
0.000186441729
-4.32861865e-07
1.26654868e-05
0.000178574139
-8.55578204e-07
8.1713156e-06
0.000173407162
-1.39464113e-06
5.4664847e-06
0.000169840045
-2.05980862e-06
3.86076883e-06
0.000167235644
-2.86341263e-06
2.8944969e-06
0.000165243066
-3.82080567e-06
2.28622806e-06
0.000163677258
-4.95083365e-06
1.87615085e-06
0.00016244795
-6.27613647e-06
1.57719529e-06
0.000161521619
-7.82324908e-06
1.34258715e-06
0.000160902783
-9.62226461e-06
1.14720998e-06
0.000160626494
-1.1705594e-05
9.77151947e-07
0.000160757188
-1.41051427e-05
8.23984451e-07
0.000161390659
-1.68468754e-05
6.81846789e-07
0.000162656688
-1.99413385e-05
5.46102547e-07
0.000164718995
-2.33676241e-05
4.12871283e-07
0.000167768667
-2.70494863e-05
2.79178968e-07
0.000172003516
-3.08202349e-05
1.43712191e-07
0.000177583672
-3.43752389e-05
8.21262071e-09
0.000184553095
-3.72200698e-05
-1.20269148e-07
0.000192717489
-3.86304313e-05
-2.27776873e-07
0.000201483057
-3.76641399e-05
-2.8715505e-07
-3.33501689e-05
-2.67286765e-07
0.000209748452
0.000434312602
2.51198991e-08
6.5729438e-05
0.000356399231
7.19724662e-08
7.80203515e-05
0.000293732968
7.46181828e-08
6.28204294e-05
0.000248584671
1.67236966e-08
4.53349632e-05
0.000218085962
-1.15686407e-07
3.07050274e-05
0.000198411079
-3.33912189e-07
1.98894945e-05
0.000185944028
-6.46043714e-07
1.26802327e-05
0.000177962524
-1.0591825e-06
8.18510836e-06
0.000172670742
-1.58264967e-06
5.47978936e-06
0.0001689658
-2.22877872e-06
3.87391213e-06
0.000166207941
-3.01314607e-06
2.90759169e-06
0.000164043185
-3.95529662e-06
2.29924629e-06
0.000162283016
-5.07964167e-06
1.88897686e-06
0.000160833624
-6.41636619e-06
1.58962152e-06
0.000159658478
-8.00236391e-06
1.35426083e-06
0.000158760692
-9.8820121e-06
1.15753292e-06
0.000158177325
-1.21073533e-05
9.85126719e-07
0.000157981141
-1.47369566e-05
8.27998322e-07
0.000158287091
-1.78322158e-05
6.79390311e-07
0.00015926132
-2.14490046e-05
5.33437021e-07
0.000161130164
-2.56211799e-05
3.84712059e-07
0.000164183806
-3.03317209e-05
2.28591118e-07
0.000168764169
-3.54631877e-05
6.25885026e-08
0.00017522156
-4.07219177e-05
-1.10713224e-07
0.00018381389
-4.5534116e-05
-2.78285104e-07
0.000194506129
-4.8909767e-05
-4.12906167e-07
0.000206638176
-4.93410494e-05
-4.55140107e-07
-4.49094249e-05
-3.62316426e-07
0.000218559745