/*--------------------------------*- C++ -*----------------------------------*\
| =========                 |                                                 |
| \\      /  F ield         | foam-extend: Open Source CFD                    |
|  \\    /   O peration     | Version:     4.1                                |
|   \\  /    A nd           | Web:         http://www.foam-extend.org         |
|    \\/     M anipulation  |                                                 |
\*---------------------------------------------------------------------------*/
FoamFile
{
    version     2.0;
    format      ascii;
    class       pointVectorField;
    location    "0.35";
    object      pointMotionU;
}
// * * * * * * * * * * * * * * * * * * * * * * * * * * * * * * * * * * * * * //

dimensions      [0 1 -1 0 0 0 0];

internalField   nonuniform List<vector> 
40832
(
(0 0 0)
(0 0 0)
(0 0 0)
(0 0 0)
(0 0 0)
(0 0 0)
(0 0 0)
(0 0 0)
(0 0 0)
(0 0 0)
(0 0 0)
(0 0 0)
(0 0 0)
(0 0 0)
(0 0 0)
(0 0 0)
(0 0 0)
(0 0 0)
(0 0 0)
(0 0 0)
(0 0 0)
(0 0 0)
(0 0 0)
(0 0 0)
(0 0 0)
(0 0 0)
(0 0 0)
(0 0 0)
(0 0 0)
(0 0 0)
(0 0 0)
(0 0 0)
(0 0 0)
(0 0 0)
(0 0 0)
(0 0 0)
(0 0 0)
(0 0 0)
(0 0 0)
(0 0 0)
(0 0 0)
(0 0 0)
(0 0 0)
(0 0 0)
(0 0 0)
(0 0 0)
(0 0 0)
(0 0 0)
(0 0 0)
(0 0 0)
(0 0 0)
(0 0 0)
(0 0 0)
(0 0 0)
(0 0 0)
(0 0 0)
(0 0 0)
(0 0 0)
(0 0 0)
(0 0 0)
(0 0 0)
(0 0 0)
(0 0 0)
(0 0 0)
(0 0 0)
(0 0 0)
(0 0 0)
(0 0 0)
(0 0 0)
(0 0 0)
(0 0 0)
(0 0 0)
(0 0 0)
(0 0 0)
(0 0 0)
(0 0 0)
(0 0 0)
(0 0 0)
(0 0 0)
(0 0 0)
(0 0 0)
(0 0 0)
(0 0 0)
(0 0 0)
(0 0 0)
(0 0 0)
(0 0 0)
(0 0 0)
(0 0 0)
(0 0 0)
(0 0 0)
(0 0 0)
(0 0 0)
(0 0 0)
(0 0 0)
(0 0 0)
(0 0 0)
(0 0 0)
(0 0 0)
(0 0 0)
(0 0 0)
(0 0 0)
(0 0 0)
(0 0 0)
(0 0 0)
(0 0 0)
(0 0 0)
(0 0 0)
(0 0 0)
(0 0 0)
(0 0 0)
(0 0 0)
(0 0 0)
(0 0 0)
(0 0 0)
(0 0 0)
(0 0 0)
(0 0 0)
(0 0 0)
(0 0 0)
(0 0 0)
(0 0 0)
(0 0 0)
(0 0 0)
(0 0 0)
(0 0 0)
(0 0 0)
(0 0 0)
(0 0 0)
(0 0 0)
(0 0 0)
(0 0 0)
(0 0 0)
(0 0 0)
(0 0 0)
(0 0 0)
(0 0 0)
(0 0 0)
(0 0 0)
(0 0 0)
(0 0 0)
(0 0 0)
(0 0 0)
(0 0 0)
(0 0 0)
(0 0 0)
(0 0 0)
(0 0 0)
(0 0 0)
(0 0 0)
(0 0 0)
(0 0 0)
(0 0 0)
(0 0 0)
(0 0 0)
(0 0 0)
(0 0 0)
(0 0 0)
(0 0 0)
(0 0 0)
(0 0 0)
(0 0 0)
(0 0 0)
(0 0 0)
(0 0 0)
(0 0 0)
(0 0 0)
(0 0 0)
(0 0 0)
(0 0 0)
(0 0 0)
(0 0 0)
(0 0 0)
(0 0 0)
(0 0 0)
(0 0 0)
(0 0 0)
(0 0 0)
(0 0 0)
(0 0 0)
(0 0 0)
(0 0 0)
(0 0 0)
(0 0 0)
(0 0 0)
(0 0 0)
(0 0 0)
(0 0 0)
(0 0 0)
(0 0 0)
(0 0 0)
(0 0 0)
(0 0 0)
(0 0 0)
(0 0 0)
(0 0 0)
(0 0 0)
(0 0 0)
(0 0 0)
(0 0 0)
(0 0 0)
(0 0 0)
(0 0 0)
(0 0 0)
(0 0 0)
(0 0 0)
(0 0 0)
(0 0 0)
(0 0 0)
(0 0 0)
(0 0 0)
(0 0 0)
(0 0 0)
(0 0 0)
(0 0 0)
(0 0 0)
(0 0 0)
(0 0 0)
(0 0 0)
(0 0 0)
(0 0 0)
(0 0 0)
(0 0 0)
(0 0 0)
(0 0 0)
(0 0 0)
(0 0 0)
(0 0 0)
(0 0 0)
(0 0 0)
(0 0 0)
(0 0 0)
(0 0 0)
(0 0 0)
(0 0 0)
(0 0 0)
(0 0 0)
(0 0 0)
(0 0 0)
(0 0 0)
(0 0 0)
(0 0 0)
(0 0 0)
(0 0 0)
(0 0 0)
(0 0 0)
(0 0 0)
(0 0 0)
(0 0 0)
(0 0 0)
(0 0 0)
(0 0 0)
(0 0 0)
(0 0 0)
(0 0 0)
(0 0 0)
(0 0 0)
(0 0 0)
(0 0 0)
(0 0 0)
(0 0 0)
(0 0 0)
(0 0 0)
(0 0 0)
(0 0 0)
(0 0 0)
(0 0 0)
(0 0 0)
(0 0 0)
(0 0 0)
(0 0 0)
(0 0 0)
(0 0 0)
(0 0 0)
(0 0 0)
(0 0 0)
(0 0 0)
(0 0 0)
(0 0 0)
(0 0 0)
(0 0 0)
(0 0 0)
(0 0 0)
(0 0 0)
(0 0 0)
(0 0 0)
(0 0 0)
(0 0 0)
(0 0 0)
(0 0 0)
(0 0 0)
(0 0 0)
(0 0 0)
(0 0 0)
(0 0 0)
(0 0 0)
(0 0 0)
(0 0 0)
(0 0 0)
(0 0 0)
(0 0 0)
(0 0 0)
(0 0 0)
(0 0 0)
(0 0 0)
(0 0 0)
(0 0 0)
(0 0 0)
(0 0 0)
(0 0 0)
(0 0 0)
(0 0 0)
(0 0 0)
(0 0 0)
(0 0 0)
(0 0 0)
(0 0 0)
(0 0 0)
(0 0 0)
(0 0 0)
(0 0 0)
(0 0 0)
(0 0 0)
(0 0 0)
(0 0 0)
(0 0 0)
(0 0 0)
(0 0 0)
(0 0 0)
(0 0 0)
(0 0 0)
(0 0 0)
(0 0 0)
(0 0 0)
(0 0 0)
(0 0 0)
(0 0 0)
(0 0 0)
(0 0 0)
(0 0 0)
(0 0 0)
(0 0 0)
(0 0 0)
(0 0 0)
(0 0 0)
(0 0 0)
(0 0 0)
(0 0 0)
(0 0 0)
(0 0 0)
(0 0 0)
(0 0 0)
(0 0 0)
(0 0 0)
(0 0 0)
(0 0 0)
(0 0 0)
(0 0 0)
(0 0 0)
(0 0 0)
(0 0 0)
(0 0 0)
(0 0 0)
(0 0 0)
(0 0 0)
(0 0 0)
(0 0 0)
(0 0 0)
(0 0 0)
(0 0 0)
(0 0 0)
(0 0 0)
(0 0 0)
(0 0 0)
(0 0 0)
(0 0 0)
(0 0 0)
(0 0 0)
(0 0 0)
(0 0 0)
(0 0 0)
(0 0 0)
(0 0 0)
(0 0 0)
(0 0 0)
(0 0 0)
(0 0 0)
(0 0 0)
(0 0 0)
(0 0 0)
(0 0 0)
(0 0 0)
(0 0 0)
(0 0 0)
(0 0 0)
(0 0 0)
(0 0 0)
(0 0 0)
(0 0 0)
(0 0 0)
(0 0 0)
(0 0 0)
(0 0 0)
(0 0 0)
(0 0 0)
(0 0 0)
(0 0 0)
(0 0 0)
(0 0 0)
(0 0 0)
(0 0 0)
(0 0 0)
(0 0 0)
(0 0 0)
(0 0 0)
(0 0 0)
(0 0 0)
(0 0 0)
(0 0 0)
(0 0 0)
(0 0 0)
(0 0 0)
(0 0 0)
(0 0 0)
(0 0 0)
(0 0 0)
(0 0 0)
(0 0 0)
(0 0 0)
(0 0 0)
(0 0 0)
(0 0 0)
(0 0 0)
(0 0 0)
(0 0 0)
(0 0 0)
(0 0 0)
(0 0 0)
(0 0 0)
(0 0 0)
(0 0 0)
(0 0 0)
(0 0 0)
(0 0 0)
(0 0 0)
(0 0 0)
(0 0 0)
(0 0 0)
(0 0 0)
(0 0 0)
(0 0 0)
(0 0 0)
(0 0 0)
(0 0 0)
(0 0 0)
(0 0 0)
(0 0 0)
(0 0 0)
(0 0 0)
(0 0 0)
(0 0 0)
(0 0 0)
(0 0 0)
(0 0 0)
(0 0 0)
(0 0 0)
(0 0 0)
(0 0 0)
(0 0 0)
(0 0 0)
(0 0 0)
(0 0 0)
(0 0 0)
(0 0 0)
(0 0 0)
(0 0 0)
(0 0 0)
(0 0 0)
(0 0 0)
(0 0 0)
(0 0 0)
(0 0 0)
(0 0 0)
(0 0 0)
(0 0 0)
(0 0 0)
(0 0 0)
(0 0 0)
(0 0 0)
(0 0 0)
(0 0 0)
(0 0 0)
(0 0 0)
(0 0 0)
(0 0 0)
(0 0 0)
(0 0 0)
(0 0 0)
(0 0 0)
(0 0 0)
(0 0 0)
(0 0 0)
(0 0 0)
(0 0 0)
(0 0 0)
(0 0 0)
(0 0 0)
(0 0 0)
(0 0 0)
(0 0 0)
(0 0 0)
(0 0 0)
(0 0 0)
(0 0 0)
(0 0 0)
(0 0 0)
(0 0 0)
(0 0 0)
(0 0 0)
(0 0 0)
(0 0 0)
(0 0 0)
(0 0 0)
(0 0 0)
(0 0 0)
(0 0 0)
(0 0 0)
(0 0 0)
(0 0 0)
(0 0 0)
(0 0 0)
(0 0 0)
(0 0 0)
(0 0 0)
(0 0 0)
(0 0 0)
(0 0 0)
(0 0 0)
(0 0 0)
(0 0 0)
(0 0 0)
(0 0 0)
(0 0 0)
(0 0 0)
(0 0 0)
(0 0 0)
(0 0 0)
(0 0 0)
(0 0 0)
(0 0 0)
(0 0 0)
(0 0 0)
(0 0 0)
(0 0 0)
(0 0 0)
(0 0 0)
(0 0 0)
(0 0 0)
(0 0 0)
(0 0 0)
(0 0 0)
(0 0 0)
(0 0 0)
(0 0 0)
(0 0 0)
(0 0 0)
(0 0 0)
(0 0 0)
(0 0 0)
(0 0 0)
(0 0 0)
(0 0 0)
(0 0 0)
(0 0 0)
(0 0 0)
(0 0 0)
(0 0 0)
(0 0 0)
(0 0 0)
(0 0 0)
(0 0 0)
(0 0 0)
(0 0 0)
(0 0 0)
(0 0 0)
(0 0 0)
(0 0 0)
(0 0 0)
(0 0 0)
(0 0 0)
(0 0 0)
(0 0 0)
(0 0 0)
(0 0 0)
(0 0 0)
(0 0 0)
(0 0 0)
(0 0 0)
(0 0 0)
(0 0 0)
(0 0 0)
(0 0 0)
(0 0 0)
(0 0 0)
(0 0 0)
(0 0 0)
(0 0 0)
(0 0 0)
(0 0 0)
(0 0 0)
(0 0 0)
(0 0 0)
(0 0 0)
(0 0 0)
(0 0 0)
(0 0 0)
(0 0 0)
(0 0 0)
(0 0 0)
(0 0 0)
(0 0 0)
(0 0 0)
(0 0 0)
(0 0 0)
(0 0 0)
(0 0 0)
(0 0 0)
(0 0 0)
(0 0 0)
(0 0 0)
(0 0 0)
(0 0 0)
(0 0 0)
(0 0 0)
(0 0 0)
(0 0 0)
(0 0 0)
(0 0 0)
(0 0 0)
(0 0 0)
(0 0 0)
(0 0 0)
(0 0 0)
(0 0 0)
(0 0 0)
(0 0 0)
(0 0 0)
(0 0 0)
(0 0 0)
(0 0 0)
(0 0 0)
(0 0 0)
(0 0 0)
(0 0 0)
(0 0 0)
(0 0 0)
(0 0 0)
(0 0 0)
(0 0 0)
(0 0 0)
(0 0 0)
(0 0 0)
(0 0 0)
(0 0 0)
(0 0 0)
(0 0 0)
(0 0 0)
(0 0 0)
(0 0 0)
(0 0 0)
(0 0 0)
(0 0 0)
(0 0 0)
(0 0 0)
(0 0 0)
(0 0 0)
(0 0 0)
(0 0 0)
(0 0 0)
(0 0 0)
(0 0 0)
(0 0 0)
(0 0 0)
(0 0 0)
(0 0 0)
(0 0 0)
(0 0 0)
(0 0 0)
(0 0 0)
(0 0 0)
(0 0 0)
(0 0 0)
(0 0 0)
(0 0 0)
(0 0 0)
(0 0 0)
(0 0 0)
(0 0 0)
(0 0 0)
(0 0 0)
(0 0 0)
(0 0 0)
(0 0 0)
(0 0 0)
(0 0 0)
(0 0 0)
(0 0 0)
(0 0 0)
(0 0 0)
(0 0 0)
(0 0 0)
(0 0 0)
(0 0 0)
(0 0 0)
(0 0 0)
(0 0 0)
(0 0 0)
(0 0 0)
(0 0 0)
(0 0 0)
(0 0 0)
(0 0 0)
(0 0 0)
(0 0 0)
(0 0 0)
(0 0 0)
(0 0 0)
(0 0 0)
(0 0 0)
(0 0 0)
(0 0 0)
(0 0 0)
(0 0 0)
(0 0 0)
(0 0 0)
(0 0 0)
(0 0 0)
(0 0 0)
(0 0 0)
(0 0 0)
(0 0 0)
(0 0 0)
(0 0 0)
(0 0 0)
(0 0 0)
(0 0 0)
(0 0 0)
(0 0 0)
(0 0 0)
(0 0 0)
(0 0 0)
(0 0 0)
(0 0 0)
(0 0 0)
(0 0 0)
(0 0 0)
(0 0 0)
(0 0 0)
(0 0 0)
(0 0 0)
(0 0 0)
(0 0 0)
(0 0 0)
(0 0 0)
(0 0 0)
(0 0 0)
(0 0 0)
(0 0 0)
(0 0 0)
(0 0 0)
(0 0 0)
(0 0 0)
(0 0 0)
(0 0 0)
(0 0 0)
(0 0 0)
(0 0 0)
(0 0 0)
(0 0 0)
(0 0 0)
(0 0 0)
(0 0 0)
(0 0 0)
(0 0 0)
(0 0 0)
(0 0 0)
(0 0 0)
(0 0 0)
(0 0 0)
(0 0 0)
(0 0 0)
(0 0 0)
(0 0 0)
(0 0 0)
(0 0 0)
(0 0 0)
(0 0 0)
(0 0 0)
(0 0 0)
(0 0 0)
(0 0 0)
(0 0 0)
(0 0 0)
(0 0 0)
(0 0 0)
(0 0 0)
(0 0 0)
(0 0 0)
(0 0 0)
(0 0 0)
(0 0 0)
(0 0 0)
(0 0 0)
(0 0 0)
(0 0 0)
(0 0 0)
(0 0 0)
(0 0 0)
(0 0 0)
(0 0 0)
(0 0 0)
(0 0 0)
(0 0 0)
(0 0 0)
(0 0 0)
(0 0 0)
(0 0 0)
(0 0 0)
(0 0 0)
(0 0 0)
(0 0 0)
(0 0 0)
(0 0 0)
(0 0 0)
(0 0 0)
(0 0 0)
(0 0 0)
(0 0 0)
(0 0 0)
(0 0 0)
(0 0 0)
(0 0 0)
(0 0 0)
(0 0 0)
(0 0 0)
(0 0 0)
(0 0 0)
(0 0 0)
(0 0 0)
(0 0 0)
(0 0 0)
(0 0 0)
(0 0 0)
(0 0 0)
(0 0 0)
(0 0 0)
(0 0 0)
(0 0 0)
(0 0 0)
(0 0 0)
(0 0 0)
(0 0 0)
(0 0 0)
(0 0 0)
(0 0 0)
(0 0 0)
(0 0 0)
(0 0 0)
(0 0 0)
(0 0 0)
(0 0 0)
(-1.01160348e-20 1.11998706e-08 -1.92369655e-21)
(-2.04400686e-20 2.26298998e-08 -3.88693905e-21)
(-3.13561505e-20 3.47150872e-08 -5.96275051e-21)
(-4.33310248e-20 4.79719585e-08 -8.23987677e-21)
(-5.68270972e-20 6.29122664e-08 -1.08062341e-20)
(-7.230833e-20 8.00494993e-08 -1.37500282e-20)
(-9.02429103e-20 9.99018274e-08 -1.71602589e-20)
(-1.11102084e-19 1.22990804e-07 -2.11264958e-20)
(-1.35354595e-19 1.49835201e-07 -2.57378179e-20)
(-1.63456239e-19 1.80939438e-07 -3.10808235e-20)
(-1.95834175e-19 2.16776204e-07 -3.7236644e-20)
(-2.32865855e-19 2.57763134e-07 -4.42769349e-20)
(-2.74852789e-19 3.04233766e-07 -5.22588865e-20)
(-3.21989837e-19 3.56403552e-07 -6.12193861e-20)
(-3.74331304e-19 4.14332351e-07 -7.11685766e-20)
(-4.31755839e-19 4.77885594e-07 -8.20831916e-20)
(-4.93932829e-19 5.46697134e-07 -9.39001823e-20)
(-5.60293689e-19 6.20137494e-07 -1.06511278e-19)
(-6.30011872e-19 6.97291804e-07 -1.19759214e-19)
(-7.0199564e-19 7.76951835e-07 -1.33436385e-19)
(-7.74897286e-19 8.57626244e-07 -1.47286629e-19)
(-8.47141624e-19 9.37572124e-07 -1.61010669e-19)
(-9.16975122e-19 1.01484938e-06 -1.74275464e-19)
(-9.82535027e-19 1.08739719e-06 -1.86727356e-19)
(-1.04193552e-18 1.15312932e-06 -1.9800842e-19)
(-1.09336573e-18 1.21004248e-06 -2.07775057e-19)
(-1.13519249e-18 1.25632996e-06 -2.15717473e-19)
(-1.1660602e-18 1.29049211e-06 -2.21578589e-19)
(0 0 0)
(-2.04431784e-20 2.26333453e-08 -3.88753042e-21)
(-4.13012553e-20 4.57257674e-08 -7.85394205e-21)
(-6.33561056e-20 7.01425179e-08 -1.20478988e-20)
(-8.75611344e-20 9.69387008e-08 -1.6650677e-20)
(-1.1486086e-19 1.27159635e-07 -2.18418532e-20)
(-1.46203819e-19 1.61855108e-07 -2.78017528e-20)
(-1.82548695e-19 2.02086142e-07 -3.47126107e-20)
(-2.24862538e-19 2.48923006e-07 -4.27582254e-20)
(-2.74109915e-19 3.03433188e-07 -5.21218894e-20)
(-3.31231998e-19 3.66658222e-07 -6.29824038e-20)
(-3.97114767e-19 4.39578475e-07 -7.55080254e-20)
(-4.72546021e-19 5.2306555e-07 -8.98482856e-20)
(-5.58161518e-19 6.17822664e-07 -1.06123746e-19)
(-6.54381586e-19 7.24314496e-07 -1.24413949e-19)
(-7.61340748e-19 8.42689331e-07 -1.44744044e-19)
(-8.78814399e-19 9.7269795e-07 -1.67070873e-19)
(-1.00614806e-18 1.11361542e-06 -1.91269551e-19)
(-1.14219626e-18 1.26417353e-06 -2.1712189e-19)
(-1.28527902e-18 1.42251274e-06 -2.44308198e-19)
(-1.43316451e-18 1.58616312e-06 -2.72404051e-19)
(-1.58308584e-18 1.75206296e-06 -3.00883544e-19)
(-1.73179801e-18 1.91662189e-06 -3.29130197e-19)
(-1.87567833e-18 2.075832e-06 -3.56456068e-19)
(-2.01086909e-18 2.22542566e-06 -3.8212889e-19)
(-2.13345663e-18 2.36107358e-06 -4.05406047e-19)
(-2.23967563e-18 2.47861068e-06 -4.25573325e-19)
(-2.32612368e-18 2.57427337e-06 -4.41985545e-19)
(-2.38996857e-18 2.6449287e-06 -4.54105812e-19)
(0 0 0)
(-3.1365729e-20 3.47257021e-08 -5.96457196e-21)
(-6.3365876e-20 7.01533477e-08 -1.20497567e-20)
(-9.72182615e-20 1.07630632e-07 -1.84871035e-20)
(-1.34413231e-19 1.48806894e-07 -2.55599747e-20)
(-1.76428981e-19 1.95318088e-07 -3.35494039e-20)
(-2.24753618e-19 2.48811156e-07 -4.27382831e-20)
(-2.80896448e-19 3.10956491e-07 -5.34134976e-20)
(-3.4638671e-19 3.83446507e-07 -6.58656743e-20)
(-4.22757959e-19 4.67978312e-07 -8.03861971e-20)
(-5.11516365e-19 5.66218576e-07 -9.72611634e-20)
(-6.14091542e-19 6.79749078e-07 -1.16762019e-19)
(-7.31769149e-19 8.0999207e-07 -1.3913273e-19)
(-8.65605555e-19 9.58115819e-07 -1.64573546e-19)
(-1.01632637e-18 1.12492232e-06 -1.9322171e-19)
(-1.18421266e-18 1.31072144e-06 -2.25129844e-19)
(-1.36898105e-18 1.51519827e-06 -2.60243182e-19)
(-1.56966639e-18 1.73728346e-06 -2.98377338e-19)
(-1.78451844e-18 1.97503905e-06 -3.39198746e-19)
(-2.01092563e-18 2.22557426e-06 -3.82210291e-19)
(-2.24538018e-18 2.48500715e-06 -4.26744819e-19)
(-2.48349814e-18 2.74848688e-06 -4.71969096e-19)
(-2.72010531e-18 3.01028895e-06 -5.1690026e-19)
(-2.94939489e-18 3.26398966e-06 -5.60435892e-19)
(-3.16515627e-18 3.50271915e-06 -6.01397497e-19)
(-3.36106523e-18 3.71948236e-06 -6.38585596e-19)
(-3.53101785e-18 3.90752822e-06 -6.70843e-19)
(-3.66948241e-18 4.06073859e-06 -6.97121409e-19)
(-3.77183888e-18 4.17400368e-06 -7.16545614e-19)
(0 0 0)
(-4.33495858e-20 4.79925331e-08 -8.24340634e-21)
(-8.75856013e-20 9.69658286e-08 -1.66553297e-20)
(-1.34430278e-19 1.48825802e-07 -2.55632163e-20)
(-1.85997768e-19 2.05912164e-07 -3.53690224e-20)
(-2.44390242e-19 2.70551436e-07 -4.64723955e-20)
(-3.1173267e-19 3.45095363e-07 -5.92772728e-20)
(-3.90192072e-19 4.31942179e-07 -7.41955238e-20)
(-4.81978718e-19 5.3353788e-07 -9.16471573e-20)
(-5.89326559e-19 6.52354497e-07 -1.12056573e-19)
(-7.14450194e-19 7.90842396e-07 -1.35844353e-19)
(-8.5947604e-19 9.5135403e-07 -1.63414137e-19)
(-1.02634614e-18 1.13603742e-06 -1.95134311e-19)
(-1.21669443e-18 1.34669922e-06 -2.31314462e-19)
(-1.43169759e-18 1.58463965e-06 -2.72177005e-19)
(-1.67190525e-18 1.8504647e-06 -3.17824938e-19)
(-1.93705834e-18 2.14388529e-06 -3.6820736e-19)
(-2.22590807e-18 2.46351714e-06 -4.23085162e-19)
(-2.53605225e-18 2.80669999e-06 -4.82000087e-19)
(-2.86380914e-18 3.1693584e-06 -5.44250968e-19)
(-3.20415102e-18 3.54592847e-06 -6.08881369e-19)
(-3.55071923e-18 3.92937484e-06 -6.74682729e-19)
(-3.89593899e-18 4.31131793e-06 -7.40216457e-19)
(-4.23124521e-18 4.68228383e-06 -8.03857038e-19)
(-4.54741972e-18 5.03207725e-06 -8.63856165e-19)
(-4.83502684e-18 5.3502632e-06 -9.18425401e-19)
(-5.0849203e-18 5.6267273e-06 -9.65832151e-19)
(-5.28878129e-18 5.85227057e-06 -1.00450139e-18)
(-5.43963924e-18 6.01918496e-06 -1.03311399e-18)
(0 0 0)
(-5.68567365e-20 6.29451298e-08 -1.08118703e-20)
(-1.14904155e-19 1.27207653e-07 -2.18500861e-20)
(-1.76469201e-19 1.95362712e-07 -3.35570521e-20)
(-2.44415377e-19 2.70579334e-07 -4.6477175e-20)
(-3.21600338e-19 3.5602012e-07 -6.11536994e-20)
(-4.10928701e-19 4.54899589e-07 -7.81387243e-20)
(-5.15383552e-19 5.70518975e-07 -9.79991636e-20)
(-6.3803319e-19 7.06273593e-07 -1.21317989e-19)
(-7.82009092e-19 8.65628338e-07 -1.48689996e-19)
(-9.50451056e-19 1.05205686e-06 -1.80711316e-19)
(-1.14641569e-18 1.26894016e-06 -2.17961961e-19)
(-1.37274524e-18 1.51942136e-06 -2.60980825e-19)
(-1.63189552e-18 1.80621521e-06 -3.10232923e-19)
(-1.92572465e-18 2.13137441e-06 -3.66069208e-19)
(-2.25524847e-18 2.49601906e-06 -4.28680093e-19)
(-2.62037375e-18 2.90004174e-06 -4.98044825e-19)
(-3.01962657e-18 3.34180737e-06 -5.73880038e-19)
(-3.4498996e-18 3.8178741e-06 -6.55591998e-19)
(-3.90624799e-18 4.32276805e-06 -7.42238229e-19)
(-4.38176764e-18 4.84884915e-06 -8.32504859e-19)
(-4.86758998e-18 5.38630592e-06 -9.24706208e-19)
(-5.35302361e-18 5.92331245e-06 -1.01681223e-18)
(-5.82586292e-18 6.4463699e-06 -1.10650757e-18)
(-6.27286778e-18 6.94083705e-06 -1.19128287e-18)
(-6.68039781e-18 7.39163143e-06 -1.26855506e-18)
(-7.03516155e-18 7.78405741e-06 -1.33580909e-18)
(-7.32501994e-18 8.10469418e-06 -1.39074961e-18)
(-7.53976857e-18 8.34226014e-06 -1.43144827e-18)
(0 0 0)
(-7.23510471e-20 8.00968751e-08 -1.37581511e-20)
(-1.46270112e-19 1.61928653e-07 -2.78143588e-20)
(-2.24823465e-19 2.48888672e-07 -4.27515647e-20)
(-3.11791582e-19 3.45160766e-07 -5.92884748e-20)
(-4.10964516e-19 4.54939361e-07 -7.81455343e-20)
(-5.26220243e-19 5.82516039e-07 -1.00059784e-19)
(-6.61574683e-19 7.32334766e-07 -1.25794317e-19)
(-8.21198776e-19 9.09010638e-07 -1.56141462e-19)
(-1.00939663e-18 1.11730552e-06 -1.91918545e-19)
(-1.23053888e-18 1.36205407e-06 -2.33955114e-19)
(-1.48894515e-18 1.64803353e-06 -2.83070491e-19)
(-1.7887102e-18 1.97977115e-06 -3.40040598e-19)
(-2.1334703e-18 2.36128569e-06 -4.0555345e-19)
(-2.52611039e-18 2.79576338e-06 -4.80153413e-19)
(-2.96841806e-18 3.28517539e-06 -5.64175444e-19)
(-3.46069814e-18 3.82985182e-06 -6.57671965e-19)
(-4.00137094e-18 4.42803791e-06 -7.60336786e-19)
(-4.58658705e-18 5.07546866e-06 -8.71432405e-19)
(-5.20990167e-18 5.76500948e-06 -9.89728839e-19)
(-5.8620589e-18 6.48641842e-06 -1.11346358e-18)
(-6.53093939e-18 7.22628908e-06 -1.24033274e-18)
(-7.20172069e-18 7.96822842e-06 -1.36752256e-18)
(-7.85728598e-18 8.69330904e-06 -1.49178796e-18)
(-8.47889375e-18 9.38080963e-06 -1.60958015e-18)
(-9.04708882e-18 1.00092219e-05 -1.71721937e-18)
(-9.54279862e-18 1.05574623e-05 -1.81110205e-18)
(-9.94852367e-18 1.10061873e-05 -1.88792504e-18)
(-1.02495057e-17 1.13390839e-05 -1.94490496e-18)
(0 0 0)
(-9.03007301e-20 9.99659685e-08 -1.71712533e-20)
(-1.82642965e-19 2.02190748e-07 -3.47305361e-20)
(-2.81004402e-19 3.1107632e-07 -5.34340246e-20)
(-3.90296454e-19 4.32058077e-07 -7.42153712e-20)
(-5.15469584e-19 5.7061452e-07 -9.80155214e-20)
(-6.6162716e-19 7.32393052e-07 -1.25804294e-19)
(-8.34102853e-19 9.23295429e-07 -1.58595012e-19)
(-1.03849555e-18 1.14951615e-06 -1.97451021e-19)
(-1.28065215e-18 1.41752309e-06 -2.43482275e-19)
(-1.56659028e-18 1.73397173e-06 -2.97830466e-19)
(-1.90235193e-18 2.10554285e-06 -3.61640992e-19)
(-2.29377809e-18 2.53869301e-06 -4.36019894e-19)
(-2.74619741e-18 3.0393099e-06 -5.21974454e-19)
(-3.26402615e-18 3.61227001e-06 -6.20337013e-19)
(-3.8502851e-18 4.2609045e-06 -7.31673097e-19)
(-4.50604904e-18 4.98639094e-06 -8.56176959e-19)
(-5.22985834e-18 5.78710343e-06 -9.93560211e-19)
(-6.01713746e-18 6.65797065e-06 -1.14294218e-18)
(-6.85968119e-18 7.58990896e-06 -1.30275358e-18)
(-7.74528351e-18 8.56941322e-06 -1.47066777e-18)
(-8.65759143e-18 9.57839621e-06 -1.64357503e-18)
(-9.57626358e-18 1.05943648e-05 -1.81761488e-18)
(-1.04774962e-17 1.15910015e-05 -1.98827772e-18)
(-1.13349455e-17 1.25391846e-05 -2.15058108e-18)
(-1.21210269e-17 1.34084234e-05 -2.29931591e-18)
(-1.2808513e-17 1.41686245e-05 -2.42934812e-18)
(-1.33722944e-17 1.47920371e-05 -2.53594927e-18)
(-1.37911239e-17 1.52551798e-05 -2.61512293e-18)
(0 0 0)
(-1.11176554e-19 1.23073435e-07 -2.11406559e-20)
(-2.2499116e-19 2.49065754e-07 -4.2782682e-20)
(-3.46545611e-19 3.83622899e-07 -6.58958874e-20)
(-4.82146811e-19 5.33724514e-07 -9.16791173e-20)
(-6.38191971e-19 7.06449913e-07 -1.21348178e-19)
(-8.21329267e-19 9.09155556e-07 -1.56166271e-19)
(-1.03857498e-18 1.14960435e-06 -1.9746612e-19)
(-1.29737864e-18 1.43603737e-06 -2.4666216e-19)
(-1.60561703e-18 1.77716672e-06 -3.05249139e-19)
(-1.97150957e-18 2.18208149e-06 -3.74785724e-19)
(-2.40344211e-18 2.66005227e-06 -4.56860612e-19)
(-2.90968119e-18 3.22021479e-06 -5.53037807e-19)
(-3.49796594e-18 3.87111829e-06 -6.64778618e-19)
(-4.17496925e-18 4.62012977e-06 -7.93338894e-19)
(-4.94563076e-18 5.47269677e-06 -9.39642087e-19)
(-5.81237827e-18 6.43148739e-06 -1.10413147e-18)
(-6.77427386e-18 7.49544745e-06 -1.28660856e-18)
(-7.82614382e-18 8.65884e-06 -1.48606928e-18)
(-8.95777711e-18 9.910361e-06 -1.70055391e-18)
(-1.0153302e-17 1.12324517e-05 -1.92703196e-18)
(-1.13908672e-17 1.26009475e-05 -2.16134554e-18)
(-1.26427549e-17 1.39852035e-05 -2.39823508e-18)
(-1.38760344e-17 1.53488177e-05 -2.63146725e-18)
(-1.50538164e-17 1.66510167e-05 -2.85407541e-18)
(-1.61370962e-17 1.78486927e-05 -3.05870926e-18)
(-1.70870791e-17 1.88989724e-05 -3.23807274e-18)
(-1.78677871e-17 1.97620975e-05 -3.38541201e-18)
(-1.84486684e-17 2.04043074e-05 -3.49500118e-18)
(0 0 0)
(-1.35444141e-19 1.49934592e-07 -2.57548437e-20)
(-2.74280601e-19 3.03622637e-07 -5.21543422e-20)
(-4.22988862e-19 4.68234609e-07 -8.04300983e-20)
(-5.8958839e-19 6.52645156e-07 -1.12106353e-19)
(-7.82278052e-19 8.65926934e-07 -1.48741129e-19)
(-1.00964801e-18 1.11758461e-06 -1.91966333e-19)
(-1.2808542e-18 1.41774742e-06 -2.43520682e-19)
(-1.60573757e-18 1.77730058e-06 -3.05272051e-19)
(-1.99483587e-18 2.20789752e-06 -3.79219266e-19)
(-2.45929808e-18 2.72186462e-06 -4.67475284e-19)
(-3.01068231e-18 3.3319769e-06 -5.7222809e-19)
(-3.66060219e-18 4.05106647e-06 -6.95672697e-19)
(-4.42020174e-18 4.89144158e-06 -8.39910502e-19)
(-5.29943945e-18 5.86409524e-06 -1.00681247e-18)
(-6.30617817e-18 6.97769975e-06 -1.19784571e-18)
(-7.44509513e-18 8.23740307e-06 -1.41386642e-18)
(-8.71645472e-18 9.64347402e-06 -1.65488771e-18)
(-1.01148186e-17 1.11898786e-05 -1.9198369e-18)
(-1.16278091e-17 1.28629152e-05 -2.20632464e-18)
(-1.32350833e-17 1.46400829e-05 -2.51045591e-18)
(-1.490771e-17 1.64893936e-05 -2.82671928e-18)
(-1.66081523e-17 1.8369354e-05 -3.14799202e-18)
(-1.82910397e-17 2.02298184e-05 -3.46569444e-18)
(-1.99048489e-17 2.20138455e-05 -3.77011422e-18)
(-2.13945032e-17 2.36605706e-05 -4.05090021e-18)
(-2.27047542e-17 2.51089412e-05 -4.29769791e-18)
(-2.37840471e-17 2.63019883e-05 -4.50086977e-18)
(-2.45884372e-17 2.71911536e-05 -4.65221964e-18)
(0 0 0)
(-1.63546127e-19 1.81039289e-07 -3.10979124e-20)
(-3.31451784e-19 3.66902184e-07 -6.30241891e-20)
(-5.11856821e-19 5.66596382e-07 -9.73258897e-20)
(-7.14855082e-19 7.91291725e-07 -1.35921326e-19)
(-9.50892378e-19 1.05254663e-06 -1.80795212e-19)
(-1.23098639e-18 1.36255072e-06 -2.3404018e-19)
(-1.56698877e-18 1.73441404e-06 -2.97906208e-19)
(-1.97181843e-18 2.18242438e-06 -3.74844421e-19)
(-2.45948157e-18 2.72206836e-06 -4.6751015e-19)
(-3.04499636e-18 3.36994711e-06 -5.78747641e-19)
(-3.74418322e-18 4.14354338e-06 -7.11548968e-19)
(-4.57323692e-18 5.06074781e-06 -8.68971254e-19)
(-5.54806658e-18 6.13912896e-06 -1.05400963e-18)
(-6.68335818e-18 7.3948975e-06 -1.26941753e-18)
(-7.99134891e-18 8.84155262e-06 -1.51747259e-18)
(-9.48031784e-18 1.04882158e-05 -1.79968958e-18)
(-1.11528413e-17 1.2337705e-05 -2.11649025e-18)
(-1.30039003e-17 1.43844464e-05 -2.46684753e-18)
(-1.50189936e-17 1.66123905e-05 -2.84793391e-18)
(-1.71724793e-17 1.89931822e-05 -3.25481728e-18)
(-1.94264336e-17 2.14849001e-05 -3.68025835e-18)
(-2.17303456e-17 2.40317191e-05 -4.11466926e-18)
(-2.4021956e-17 2.65648355e-05 -4.54628887e-18)
(-2.62294645e-17 2.90049058e-05 -4.96161344e-18)
(-2.82751719e-17 3.12660689e-05 -5.34609035e-18)
(-3.00803904e-17 3.32613724e-05 -5.68503905e-18)
(-3.15711875e-17 3.49091179e-05 -5.96471548e-18)
(-3.26842884e-17 3.61393853e-05 -6.1733946e-18)
(0 0 0)
(-1.95838402e-19 2.16781328e-07 -3.72374419e-20)
(-3.97383445e-19 4.39876741e-07 -7.55591e-20)
(-6.14619819e-19 6.80335064e-07 -1.16862447e-19)
(-8.60100248e-19 9.52046502e-07 -1.63532797e-19)
(-1.14712755e-18 1.26972987e-06 -2.18097275e-19)
(-1.4897255e-18 1.64889916e-06 -2.83218811e-19)
(-1.90307374e-18 2.10634375e-06 -3.61778173e-19)
(-2.40405297e-18 2.66073027e-06 -4.56976687e-19)
(-3.01115945e-18 3.33250664e-06 -5.72318736e-19)
(-3.74446848e-18 4.14386019e-06 -7.11603147e-19)
(-4.62548094e-18 5.11854689e-06 -8.7889185e-19)
(-5.67660236e-18 6.28131475e-06 -1.07840825e-18)
(-6.92034545e-18 7.65702238e-06 -1.31438264e-18)
(-8.37811828e-18 9.26930057e-06 -1.59081879e-18)
(-1.00686004e-17 1.11387597e-05 -1.91118273e-18)
(-1.20056753e-17 1.32807083e-05 -2.27800864e-18)
(-1.41959836e-17 1.57024517e-05 -2.69243522e-18)
(-1.66361791e-17 1.8400264e-05 -3.15369009e-18)
(-1.93100803e-17 2.13562432e-05 -3.65856043e-18)
(-2.21860345e-17 2.45353981e-05 -4.20091119e-18)
(-2.52149139e-17 2.78834352e-05 -4.77133127e-18)
(-2.83292451e-17 3.13257934e-05 -5.35700045e-18)
(-3.14439765e-17 3.47684899e-05 -5.94186805e-18)
(-3.44592964e-17 3.81012305e-05 -6.50721376e-18)
(-3.72656875e-17 4.12029938e-05 -7.03261545e-18)
(-3.97510432e-17 4.39498936e-05 -7.49728169e-18)
(-4.18092207e-17 4.62246309e-05 -7.8816259e-18)
(-4.33489785e-17 4.79263727e-05 -8.16888754e-18)
(0 0 0)
(-2.32915917e-19 2.5781911e-07 -4.42864455e-20)
(-4.72912593e-19 5.23472406e-07 -8.99179685e-20)
(-7.32360806e-19 8.10648564e-07 -1.39245202e-19)
(-1.02708876e-18 1.13686144e-06 -1.95275469e-19)
(-1.3738614e-18 1.52065914e-06 -2.61192968e-19)
(-1.79009142e-18 1.9813026e-06 -3.40303102e-19)
(-2.29503357e-18 2.54008554e-06 -4.36258469e-19)
(-2.91077462e-18 3.22142811e-06 -5.53245542e-19)
(-3.66157012e-18 4.05214087e-06 -6.9585654e-19)
(-4.57399307e-18 5.06158751e-06 -8.69114823e-19)
(-5.67706504e-18 6.28182877e-06 -1.07849606e-18)
(-7.00151379e-18 7.74680117e-06 -1.32978243e-18)
(-8.57891326e-18 9.49136735e-06 -1.62889356e-18)
(-1.04401131e-17 1.15495826e-05 -1.98158199e-18)
(-1.26131428e-17 1.3952382e-05 -2.39302925e-18)
(-1.51203994e-17 1.6724478e-05 -2.86730771e-18)
(-1.7975279e-17 1.9880642e-05 -3.40674102e-18)
(-2.11782524e-17 2.34213724e-05 -4.01116642e-18)
(-2.47126163e-17 2.73282011e-05 -4.67714657e-18)
(-2.85403631e-17 3.1559129e-05 -5.39721827e-18)
(-3.25987763e-17 3.60448604e-05 -6.1592949e-18)
(-3.67985177e-17 4.06866847e-05 -6.94636563e-18)
(-4.10240272e-17 4.53569117e-05 -7.73663843e-18)
(-4.51369661e-17 4.99026727e-05 -8.50425058e-18)
(-4.89831381e-17 5.41535656e-05 -9.22060746e-18)
(-5.24027674e-17 5.79330132e-05 -9.85630548e-18)
(-5.5243261e-17 6.10723688e-05 -1.03834619e-17)
(-5.73728155e-17 6.34259578e-05 -1.07781475e-17)
(0 0 0)
(-2.75035104e-19 3.04436294e-07 -5.22935444e-20)
(-5.58586823e-19 6.18294847e-07 -1.06204597e-19)
(-8.66199002e-19 9.58774759e-07 -1.64686355e-19)
(-1.21760746e-18 1.34771247e-06 -2.31488005e-19)
(-1.63337028e-18 1.80785071e-06 -3.10513217e-19)
(-2.13512242e-18 2.36311806e-06 -4.05867432e-19)
(-2.74776941e-18 3.04105417e-06 -5.22273137e-19)
(-3.49978796e-18 3.87313969e-06 -6.65124689e-19)
(-4.42202424e-18 4.89346395e-06 -8.40256565e-19)
(-5.54962125e-18 6.14085514e-06 -1.0543047e-18)
(-6.92160329e-18 7.65841967e-06 -1.31462126e-18)
(-8.57964456e-18 9.49218037e-06 -1.6290322e-18)
(-1.05676534e-17 1.16906199e-05 -2.00574806e-18)
(-1.29295559e-17 1.43022353e-05 -2.45293118e-18)
(-1.57067768e-17 1.73727599e-05 -2.97820514e-18)
(-1.89343584e-17 2.09408811e-05 -3.58790821e-18)
(-2.26364801e-17 2.50332959e-05 -4.28623888e-18)
(-2.68209307e-17 2.96586054e-05 -5.07421515e-18)
(-3.14728391e-17 3.48003874e-05 -5.94851283e-18)
(-3.65483024e-17 4.04101508e-05 -6.90031182e-18)
(-4.19687463e-17 4.64010958e-05 -7.91431375e-18)
(-4.76171809e-17 5.26439672e-05 -8.96814998e-18)
(-5.33376503e-17 5.89664367e-05 -1.00324128e-17)
(-5.89391447e-17 6.51574203e-05 -1.10715218e-17)
(-6.4204887e-17 7.09773394e-05 -1.20455539e-17)
(-6.89070936e-17 7.61744345e-05 -1.29130098e-17)
(-7.28260503e-17 8.05058533e-05 -1.36342622e-17)
(-7.57709558e-17 8.37606937e-05 -1.41752148e-17)
(0 0 0)
(-3.22175243e-19 3.56609701e-07 -6.1254633e-20)
(-6.5477622e-19 7.24753131e-07 -1.2448897e-19)
(-1.01695882e-18 1.12562505e-06 -1.93341934e-19)
(-1.43270446e-18 1.58575762e-06 -2.72368388e-19)
(-1.92714464e-18 2.13295049e-06 -3.66339093e-19)
(-2.52764031e-18 2.7974621e-06 -4.80444158e-19)
(-3.26584535e-18 3.61428987e-06 -6.20682624e-19)
(-4.17718915e-18 4.62259423e-06 -7.93760519e-19)
(-5.30182626e-18 5.86674568e-06 -1.00726557e-18)
(-6.68623352e-18 7.3980894e-06 -1.26996301e-18)
(-8.38083684e-18 9.27231957e-06 -1.59133426e-18)
(-1.04420732e-17 1.15517617e-05 -1.9819533e-18)
(-1.29306967e-17 1.43035048e-05 -2.45314708e-18)
(-1.59083627e-17 1.75956321e-05 -3.01632452e-18)
(-1.94355411e-17 2.14949248e-05 -3.68255643e-18)
(-2.3565596e-17 2.60603288e-05 -4.46143005e-18)
(-2.83393707e-17 3.13369767e-05 -5.36000709e-18)
(-3.37774909e-17 3.73476845e-05 -6.38136913e-18)
(-3.98711846e-17 4.40828025e-05 -7.52291582e-18)
(-4.65726285e-17 5.1489538e-05 -8.77462404e-18)
(-5.37858018e-17 5.94618326e-05 -1.01174678e-17)
(-6.13596434e-17 6.78327871e-05 -1.15223425e-17)
(-6.90854863e-17 7.63718135e-05 -1.29498482e-17)
(-7.67009027e-17 8.47888792e-05 -1.43512852e-17)
(-8.39017838e-17 9.27478571e-05 -1.56711202e-17)
(-9.03633365e-17 9.98897375e-05 -1.68509435e-17)
(-9.57686232e-17 0.00010586418 -1.78345756e-17)
(-9.98407215e-17 0.000110365068 -1.85735793e-17)
(0 0 0)
(-3.74505317e-19 4.14526127e-07 -7.12016579e-20)
(-7.61702669e-19 8.43092247e-07 -1.44812847e-19)
(-1.18479119e-18 1.31136527e-06 -2.25239818e-19)
(-1.67275584e-18 1.85141089e-06 -3.17986617e-19)
(-2.2564011e-18 2.49730091e-06 -4.28899156e-19)
(-2.96986783e-18 3.2867877e-06 -5.64450934e-19)
(-3.85222712e-18 4.26306343e-06 -7.32042028e-19)
(-4.94788006e-18 5.47519806e-06 -9.40069276e-19)
(-6.30905822e-18 6.98090142e-06 -1.19839235e-18)
(-7.99491941e-18 8.8455209e-06 -1.51814995e-18)
(-1.00722135e-17 1.11427777e-05 -1.91186749e-18)
(-1.26171798e-17 1.39568694e-05 -2.39379328e-18)
(-1.57099012e-17 1.73762361e-05 -2.9787958e-18)
(-1.94368184e-17 2.14963517e-05 -3.68279716e-18)
(-2.3885841e-17 2.64143335e-05 -4.52180065e-18)
(-2.91358839e-17 3.22173875e-05 -5.50986064e-18)
(-3.52528676e-17 3.89783954e-05 -6.65828411e-18)
(-4.22787393e-17 4.67437786e-05 -7.97354106e-18)
(-5.02180194e-17 5.55186198e-05 -9.45476267e-18)
(-5.90235834e-17 6.52509317e-05 -1.10911852e-17)
(-6.85820523e-17 7.58154899e-05 -1.28596458e-17)
(-7.87019115e-17 8.70006847e-05 -1.47227373e-17)
(-8.91070779e-17 9.85013985e-05 -1.66281176e-17)
(-9.9439389e-17 0.000109921755 -1.85095463e-17)
(-1.09273517e-16 0.000120791608 -2.02901383e-17)
(-1.1814638e-16 0.000130599059 -2.18879916e-17)
(-1.25599792e-16 0.000138837613 -2.322374e-17)
(-1.31230508e-16 0.0001450615 -2.42288764e-17)
(0 0 0)
(-4.31913719e-19 4.7806181e-07 -8.21132059e-20)
(-8.79139171e-19 9.73060366e-07 -1.67132613e-19)
(-1.36949368e-18 1.51577018e-06 -2.60340629e-19)
(-1.93779273e-18 2.14470441e-06 -3.68346948e-19)
(-2.62136557e-18 2.90114791e-06 -4.98233318e-19)
(-3.46199291e-18 3.83129593e-06 -6.57917986e-19)
(-4.50774792e-18 4.98828559e-06 -8.56499678e-19)
(-5.81457721e-18 6.4339395e-06 -1.10454902e-18)
(-7.4481534e-18 8.24081068e-06 -1.41444686e-18)
(-9.48377654e-18 1.04920718e-05 -1.80034571e-18)
(-1.2009915e-17 1.32854332e-05 -2.27881188e-18)
(-1.51251835e-17 1.6729809e-05 -2.86821328e-18)
(-1.89379411e-17 2.09448851e-05 -3.58858457e-18)
(-2.3568537e-17 2.60636183e-05 -4.46198223e-18)
(-2.91388106e-17 3.22206472e-05 -5.51040893e-18)
(-3.57638119e-17 3.95431528e-05 -6.75414833e-18)
(-4.35467025e-17 4.81452249e-05 -8.21070709e-18)
(-5.25636353e-17 5.81111418e-05 -9.89190377e-18)
(-6.28438092e-17 6.94733058e-05 -1.18001323e-17)
(-7.43498467e-17 8.21905299e-05 -1.39248428e-17)
(-8.69543985e-17 9.61221532e-05 -1.6238549e-17)
(-1.00420535e-16 0.000111006351 -1.86938391e-17)
(-1.14388379e-16 0.000126445355 -2.12218591e-17)
(-1.28373519e-16 0.000141903698 -2.37331875e-17)
(-1.41783717e-16 0.000156726701 -2.61220106e-17)
(-1.53959026e-16 0.00017018483 -2.82740565e-17)
(-1.6423528e-16 0.000181543883 -3.00777485e-17)
(-1.72022645e-16 0.000190151832 -3.14367983e-17)
(0 0 0)
(-4.94073888e-19 5.46855105e-07 -9.39269983e-20)
(-1.00643653e-18 1.11393845e-06 -1.91324387e-19)
(-1.57011832e-18 1.73778953e-06 -2.98463245e-19)
(-2.22655035e-18 2.46423641e-06 -4.23207238e-19)