/*--------------------------------*- C++ -*----------------------------------*\
| =========                 |                                                 |
| \\      /  F ield         | foam-extend: Open Source CFD                    |
|  \\    /   O peration     | Version:     4.1                                |
|   \\  /    A nd           | Web:         http://www.foam-extend.org         |
|    \\/     M anipulation  |                                                 |
\*---------------------------------------------------------------------------*/
FoamFile
{
    version     2.0;
    format      ascii;
    class       volScalarField;
    location    "0.35";
    object      rAU;
}
// * * * * * * * * * * * * * * * * * * * * * * * * * * * * * * * * * * * * * //

dimensions      [0 0 1 0 0 0 0];

internalField   nonuniform List<scalar> 
35840
(
0.000714285787
0.000836637616
0.00092454856
0.000999612813
0.00105386417
0.00109046319
0.00111504576
0.00113178607
0.00114331699
0.00115143793
0.0011573574
0.00116182906
0.00116531338
0.00116809785
0.00117036661
0.00117224116
0.0011738052
0.00117505062
0.00117610122
0.00117700483
0.00117778736
0.00117847107
0.00117907533
0.00117961718
0.00118011163
0.00118057185
0.00118100935
0.00118143397
0.000739083781
0.000819497565
0.00088089201
0.000951172652
0.00101612354
0.00106944515
0.00111046789
0.00114131665
0.00116442613
0.00118185501
0.0011952144
0.00120566517
0.00121400258
0.00122076899
0.00122633873
0.0012309742
0.00123486366
0.0012380703
0.00124078741
0.00124301138
0.00124487532
0.00124651972
0.00124798541
0.00124930837
0.00125052032
0.00125164918
0.00125271928
0.00125375151
0.00075317566
0.000833322858
0.000878398411
0.000929314346
0.000978234732
0.00102100094
0.00105596517
0.00108369704
0.00110556777
0.00112291019
0.00113682042
0.001148131
0.00115744503
0.00116519717
0.00117170516
0.00117720495
0.00118187505
0.00118585365
0.00118925036
0.00119206086
0.00119422233
0.00119611737
0.00119782615
0.00119938593
0.00120082985
0.00120218716
0.00120348332
0.00120474008
0.000760308994
0.000850112853
0.000895623428
0.000941325028
0.000982257668
0.00101676111
0.00104457774
0.0010666335
0.00108423241
0.00109850259
0.00111028404
0.00112016594
0.00112855145
0.00113572151
0.00114188071
0.00114718482
0.0011517569
0.00115569724
0.00115908963
0.00116200551
0.00116405164
0.0011658289
0.00116745541
0.00116896347
0.00117038249
0.00117173866
0.00117305479
0.00117435009
0.000763382535
0.000860199293
0.00090977489
0.000956401663
0.000995498681
0.0010263857
0.00104993677
0.00106782177
0.00108169813
0.00109282445
0.00110204469
0.00110988666
0.0011166687
0.00112258542
0.00112776375
0.00113229456
0.00113624923
0.00113968798
0.00114266395
0.00114514415
0.00114670982
0.00114811102
0.00114941921
0.00115065997
0.00115185738
0.00115303326
0.00115420659
0.00115539296
0.000765074083
0.000866246584
0.000919348293
0.000968015509
0.00100751105
0.00103741534
0.00105912248
0.00107479276
0.00108640381
0.00109539455
0.00110269614
0.00110886414
0.00111421117
0.00111890922
0.00112305546
0.00112670976
0.00112991457
0.00113270471
0.00113511186
0.00113677515
0.00113773166
0.0011386341
0.00113950267
0.00114035819
0.00114122086
0.00114210927
0.00114303941
0.00114402393
0.000766121445
0.000870081237
0.000925796162
0.000976359648
0.00101677894
0.00104669145
0.00106773713
0.00108236723
0.00109277839
0.00110054391
0.00110666946
0.00111174708
0.00111610347
0.00111991188
0.00112326335
0.00112620761
0.00112877528
0.0011309892
0.00113282686
0.00113349196
0.00113390201
0.00113430573
0.00113472208
0.00113517091
0.00113567171
0.0011362424
0.00113689815
0.00113765035
0.000766816655
0.000872664215
0.000930309588
0.000982463178
0.00102385487
0.00105409714
0.00107496757
0.00108911161
0.00109888466
0.00110596019
0.00111139887
0.00111581981
0.00111956109
0.00112279915
0.00112562365
0.00112808033
0.00113019442
0.00113198267
0.00113297218
0.00113292453
0.00113287823
0.0011328532
0.00113287113
0.0011329545
0.00113312528
0.00113340353
0.00113380602
0.00113434491
0.00076731009
0.000874503986
0.00093359907
0.000987055293
0.00102935286
0.00106003646
0.00108095624
0.00109489017
0.00110431378
0.00111098207
0.00111600255
0.00112001756
0.00112337481
0.00112625309
0.00112874077
0.00113088031
0.00113269259
0.00113399617
0.00113392875
0.00113351511
0.00113311027
0.00113273938
0.00113242932
0.00113220769
0.00113210142
0.0011321351
0.00113232926
0.00113269867
0.000767678112
0.000875873432
0.000936080473
0.000990600977
0.00103371141
0.00106487224
0.00108596269
0.00109984778
0.0011090924
0.00111551825
0.0011202746
0.00112402645
0.00112713199
0.00112977349
0.00113203878
0.00113396757
0.00113557667
0.00113577405
0.00113509727
0.00113439784
0.00113370478
0.00113304955
0.00113246566
0.00113198757
0.00113164917
0.00113148169
0.00113151143
0.00113175751
0.000767962995
0.00087692991
0.0009380098
0.000993405064
0.0010372329
0.00106886981
0.001090198
0.0011041374
0.00111331748
0.00111961267
0.0011242082
0.00112779059
0.00113072935
0.00113321161
0.00113532606
0.00113711061
0.00113778015
0.00113701545
0.00113611006
0.00113516711
0.00113422195
0.00113331306
0.00113248179
0.0011317712
0.00113122418
0.00113088088
0.00113077566
0.00113093393
0.000768190166
0.000877769203
0.000939549435
0.000995670618
0.00104012731
0.00107222011
0.00109382042
0.00110788125
0.00111707781
0.00112332511
0.00112783814
0.00113132264
0.00113415933
0.00113654097
0.00113855804
0.00113955024
0.00113897831
0.00113796058
0.00113684613
0.00113567352
0.00113448462
0.0011333257
0.00113224731
0.0011313031
0.00113054754
0.00113003264
0.00112980382
0.0011298954
0.000768375597
0.000878451826
0.000940805081
0.00099753548
0.00104254309
0.00107506315
0.00109694985
0.0011111751
0.00112044612
0.00112670874
0.00113120196
0.00113464805
0.00113743802
0.0011397703
0.00114113247
0.00114083447
0.00113981232
0.00113861943
0.00113729761
0.00113589047
0.00113444645
0.00113302033
0.00113167344
0.00113047248
0.00112948685
0.00112878441
0.00112842587
0.00112845832
0.000768529692
0.000879017384
0.000941847463
0.000999095035
0.00104458677
0.00107750283
0.00109967811
0.00111409444
0.00112348144
0.00112980822
0.00113433302
0.00113779195
0.00114058514
0.00114239443
0.00114246639
0.00114156909
0.00114041183
0.00113904177
0.00113750336
0.0011358443
0.00113411926
0.00113239212
0.00113073666
0.00112923561
0.00112797761
0.00112705188
0.0011265405
0.00112650904
0.000768659449
0.000879492588
0.000942725029
0.00100041633
0.00104633549
0.0010796167
0.0011020757
0.00111669883
0.00112623146
0.00113266046
0.00113725944
0.00114077618
0.00114317193
0.00114374226
0.00114312475
0.00114214012
0.00114084719
0.00113929265
0.00113752154
0.00113558406
0.00113354024
0.00113146316
0.00112944066
0.00112757496
0.00112597952
0.00112477243
0.00112406599
0.00112395292
0.000768769697
0.000879895894
0.000943471629
0.00100154714
0.00104784554
0.00108146271
0.00110419656
0.00111903481
0.00112873406
0.001135295
0.00114000381
0.00114323892
0.00114449357
0.00114434354
0.00114369192
0.00114262352
0.00114119339
0.0011394449
0.00113742096
0.00113517175
0.00113276077
0.00113026964
0.00112780144
0.00112548168
0.00112345564
0.0011218806
0.00112091195
0.00112068308
0.000768863843
0.000880240318
0.0009441113
0.00100252184
0.00104915813
0.00108308406
0.00110608154
0.00112113795
0.00113101827
0.00113773425
0.00114226362
0.00114449251
0.00114504897
0.00114491907
0.00114424205
0.00114309614
0.00114152948
0.00113957869
0.00113728075
0.00113468202
0.00113184609
0.00112886096
0.00112584508
0.00112295097
0.00112036422
0.00111829536
0.00111696188
0.00111654031
0.000768944331
0.000880535195
0.000944661332
0.00100336535
0.00105030341
0.00108451266
0.00110776095
0.00112303459
0.00113310509
0.0011397269
0.00114340966
0.00114500537
0.00114563215
0.00114553599
0.00114484778
0.00114363648
0.00114193993
0.00113978364
0.00113719349
0.00113420639
0.00113088043
0.00112730533
0.00112361286
0.00111998514
0.00111665779
0.00111391331
0.0011120469
0.00111133184
0.000769012955
0.000880787332
0.000945134302
0.00100409581
0.00105130339
0.00108577176
0.00110925662
0.00112474309
0.0011347856
0.00114073202
0.00114387713
0.00114558461
0.00114629901
0.00114625752
0.00114558085
0.00114432592
0.00114251643
0.00114016161
0.00113726969
0.00113385998
0.00112997601
0.00112570061
0.00112117261
0.00111660328
0.00111228782
0.00110860483
0.00110593446
0.00110479542
0.000769071055
0.000881001783
0.000945539463
0.00100472646
0.00105217399
0.00108687788
0.00111058352
0.00112608781
0.00113562522
0.00114114765
0.00114443395
0.00114627234
0.00114709937
0.00114714281
0.0011465118
0.0011452487
0.00114335902
0.00114082981
0.00113764324
0.00113379002
0.0011292855
0.00112419057
0.00111863758
0.00111285958
0.00110721752
0.00110216192
0.00109835994
0.00109654357
0.00076911967
0.000881182398
0.000945883735
0.00100526704
0.00105292663
0.00108784242
0.00111159079
0.00112674785
0.0011359815
0.00114166102
0.00114510743
0.00114710265
0.00114807585
0.00114824549
0.0011477084
0.00114649054
0.00114457561
0.00114192214
0.00113847619
0.00113418543
0.00112901768
0.00112298774
0.00111619542
0.00110887473
0.00110141708
0.00109443281
0.00108893736
0.00108601541
0.000769159644
0.000881332227
0.000946172433
0.0010057248
0.00105356949
0.00108853172
0.00111206879
0.00112703861
0.00113643206
0.0011422856
0.00114591595
0.00114810031
0.00114926186
0.00114961084
0.00114923231
0.00114813524
0.00114627895
0.00114358776
0.00113996123
0.00113528624
0.00112945636
0.00112240397
0.00111415144
0.00110488698
0.00109492075
0.00108523513
0.00107714974
0.00107237848
0.000769191709
0.000881453805
0.00094640982
0.00100610536
0.00105398012
0.00108883715
0.00111229109
0.0011274119
0.00113697896
0.00114302607
0.00114686777
0.00114927878
0.00115067864
0.0011512718
0.0011511338
0.0011502582
0.00114857993
0.00114598586
0.00114231999
0.00113738988
0.00113098206
0.00112289451
0.00111299907
0.00110121481
0.00108799832
0.00107440684
0.00106225362
0.00105427774
0.000769212843
0.000881544417
0.000946566637
0.00100629634
0.0010541343
0.00108899269
0.00111257968
0.0011278617
0.0011376165
0.00114387749
0.00114795954
0.00115063775
0.00115233146
0.00115324331
0.00115344395
0.00115291636
0.00115157539
0.00114927245
0.00114579239
0.00114084888
0.00113408702
0.00112510493
0.00111342448
0.0010986942
0.00108124388
0.00106199213
0.00104319155
0.00102928921
0.000769215018
0.000881570469
0.000946613502
0.00100633441
0.00105423048
0.00108919723
0.00111292389
0.00112837576
0.00113833093
0.00114482468
0.00114917494
0.00115216066
0.00115420538
0.00115551568
0.00115616458
0.00115613363
0.00115532829
0.0011535756
0.00115060945
0.00114604783
0.00113936891
0.00112990072
0.0011164703
0.00109860358
0.0010758228
0.00104852056
0.00101884363
0.000994013712
0.000769207738
0.000881556465
0.000946616794
0.00100638469
0.00105436018
0.00108943863
0.00111330869
0.00112893597
0.00113910061
0.00114584194
0.00115048378
0.00115381265
0.00115626144
0.00115804775
0.00115925691
0.0011598828
0.00115984017
0.00115895607
0.00115694244
0.00115334974
0.00114750052
0.0011381269
0.00112382632
0.00110299829
0.00107374823
0.00103496547
0.000988213203
0.000947252257
0.000769204714
0.000881555119
0.000946638278
0.0010064563
0.00105451213
0.00108970205
0.00111371525
0.00112951883
0.00113989649
0.0011468935
0.00115184208
0.00115553991
0.00115843437
0.00116076172
0.00116263108
0.00116406598
0.00116501681
0.00116535018
0.00116481458
0.00116297553
0.0011590573
0.00115128017
0.00113803424
0.00111616179
0.00108111152
0.00102774163
0.000955780586
0.000898126013
0.000769205015
0.000881563249
0.00094667209
0.0010065401
0.00105467352
0.00108997047
0.00111412163
0.00113009653
0.00114068346
0.00114793503
0.00115319372
0.00115727113
0.00116063336
0.00116354202
0.00116614072
0.00116850014
0.00117063533
0.00117250116
0.00117396513
0.00117474843
0.00117398019
0.00117031585
0.00116191986
0.00114489673
0.00111233255
0.00105372201
0.000962647793
0.000882860224
0.000739802597
0.00082172073
0.000884286527
0.000955196021
0.00102016161
0.00107303993
0.00111337293
0.00114347065
0.00116588534
0.00118272657
0.00119561534
0.00120570361
0.0012137712
0.00122034435
0.00122578293
0.00123033728
0.00123418602
0.00123746102
0.00124026318
0.0012426723
0.0012447536
0.00124656186
0.00124814411
0.00124954138
0.00125078988
0.00125192178
0.00125296566
0.00125394678
0.000752948247
0.000758100594
0.000763153422
0.000796314887
0.000843042429
0.000894036744
0.000942833173
0.000986193999
0.00102312603
0.0010538177
0.00107905066
0.00109979224
0.00111694017
0.00113123302
0.00114324916
0.00115343191
0.00116211931
0.00116957117
0.00117599073
0.00118154071
0.00118635456
0.00119054438
0.0011942064
0.00119742488
0.00120027469
0.00120282304
0.00120513063
0.0012072523
0.000770705646
0.00077088502
0.000754230168
0.000761611297
0.000782823167
0.000811819976
0.000843665025
0.000875072394
0.000904266396
0.000930423954
0.000953333295
0.000973158095
0.000990232617
0.00100493056
0.0010176041
0.00102856105
0.0010380602
0.0010463155
0.00105350366
0.00105977188
0.00106524452
0.00107002846
0.00107421718
0.0010778939
0.00108113379
0.00108400563
0.00108657278
0.00108889386
0.000779770452
0.000790744312
0.000774250634
0.000776094663
0.000787816315
0.000805265965
0.000825333298
0.000845959841
0.000865985584
0.000884761584
0.000901958621
0.000917477166
0.000931357761
0.000943708995
0.000954665954
0.000964368459
0.000972949692
0.000980531249
0.000987222102
0.000993119445
0.00099831028
0.00100287317
0.00100687987
0.00101039675
0.00101348598
0.0010162064
0.00101861402
0.00102076235
0.000783419853
0.000802128421
0.000790102458
0.000794028929
0.000805254156
0.000819677886
0.000834857191
0.000849621861
0.000863571122
0.000876581096
0.000888615145
0.000899682104
0.000909814336
0.00091905278
0.000927442079
0.000935029572
0.000941864224
0.000947995468
0.000953472413
0.000958343429
0.000962655975
0.000966456636
0.000969791291
0.000972705399
0.000975244263
0.000977453213
0.000979377661
0.00098106297
0.000785372747
0.00080859863
0.000800134182
0.00080688952
0.000819981164
0.000834971199
0.000849341709
0.000862155879
0.000873383543
0.000883273183
0.000892090506
0.000900050112
0.000907301824
0.000913939128
0.000920017197
0.00092556944
0.000930618587
0.000935183185
0.000939281163
0.000942931674
0.00094615591
0.000948977448
0.000951422403
0.000953519528
0.000955300233
0.000956798533
0.000958050866
0.000959095724
0.000786563838
0.000812607749
0.000806644743
0.00081565256
0.000830618831
0.000846905767
0.000861842053
0.000874488357
0.000884927684
0.000893572784
0.000900858784
0.000907145171
0.00091268979
0.00091765839
0.000922149401
0.000926218114
0.00092989456
0.000933195326
0.00093613095
0.00093871034
0.000940943327
0.000942842093
0.000944422055
0.000945702396
0.000946706365
0.000947461377
0.000947998885
0.000948353976
0.000787346753
0.000815278489
0.000811110727
0.000821855165
0.000838376795
0.000855904087
0.000871657657
0.000884673738
0.000895080386
0.000903367425
0.000910055278
0.000915582619
0.000920272493
0.000924339939
0.000927918187
0.000931085381
0.000933885149
0.000936340867
0.000938465082
0.000940265513
0.000941748825
0.000942923021
0.000943799057
0.00094439194
0.00094472148
0.000944812722
0.000944696015
0.000944406678
0.000787900835
0.00081716956
0.000814326013
0.000826425768
0.000844225183
0.0008628386
0.000879397501
0.000892911197
0.000903534328
0.000911807665
0.000918307255
0.000923522116
0.000927816017
0.000931434595
0.000934532872
0.000937203704
0.000939499925
0.000941449962
0.000943068339
0.000944362627
0.000945337923
0.000945999932
0.000946357143
0.000946422464
0.000946066338
0.000945399524
0.000944727546
0.000944083908
0.000788313796
0.00081857336
0.0008167341
0.00082990669
0.000848763978
0.000868322653
0.000885633287
0.000899671703
0.000910604238
0.000919007377
0.000925499423
0.000930608279
0.000934728887
0.000938129684
0.000940981229
0.000943386171
0.000945402771
0.000947061616
0.000948377086
0.000949354966
0.000949997577
0.000950307429
0.000949522181
0.000948568041
0.000947389735
0.000946110933
0.000945044686
0.000944225424
0.000788633625
0.000819655729
0.000818599219
0.000832634259
0.000852374169
0.000872755877
0.00089075797
0.000905318951
0.00091660476
0.000925214297
0.000931797129
0.000936912043
0.000940979766
0.000944288007
0.000947020468
0.0009492878
0.00095115216
0.000952644905
0.000953778821
0.000954556391
0.000954139203
0.000953146855
0.000951221197
0.000949319505
0.000947555582
0.000945983016
0.000944652114
0.000943607137
0.00078888905
0.000820516262
0.000820085065
0.000834824512
0.000855307091
0.000876406709
0.000895040013
0.000910108098
0.000921768736
0.000930632899
0.000937371969
0.000942568431
0.000946663986
0.00094996271
0.000952659805
0.000954872956
0.00095666756
0.00095807507
0.000958795521
0.0009580319
0.000956171383
0.000953875741
0.000951591453
0.000949384154
0.000947321056
0.000945469221
0.000943892645
0.000942648437
0.000789097957
0.000821217135
0.000821296214
0.000836619931
0.0008577334
0.000879461606
0.000898669138
0.000914221967
0.000926265558
0.000935415864
0.00094235878
0.000947694428
0.000951881116
0.000955236448
0.000957965386
0.000960191637
0.000961983158
0.000962418128
0.00096150232
0.000959154116
0.00095664978
0.000954060205
0.000951459319
0.000948925393
0.000946540615
0.000944388877
0.000942551878
0.000941103803
0.00078927191
0.000821798653
0.000822301577
0.000838116805
0.000859771485
0.000882052944
0.000901782627
0.000917794813
0.000930221047
0.000939677811
0.000946860264
0.00095238149
0.000956712792
0.000960182737
0.000963004409
0.000965306485
0.000965654767
0.000964392519
0.000962090113
0.000959506671
0.000956718078
0.000953802696
0.000950845133
0.000947937981
0.000945181463
0.000942680729
0.000940540702
0.000938858688
0.000789418646
0.000822287794
0.000823147798
0.000839381577
0.000861504854
0.00088427606
0.00090448116
0.000920926626
0.000933730035
0.000943505818
0.00095095493
0.000956700077
0.000961222738
0.000964860492
0.000967634264
0.000968345592
0.000966987116
0.000964912761
0.000962414736
0.000959572683
0.000956465417
0.000953177666
0.000949804806
0.000946455463
0.000943251563
0.000940325264
0.000937812322
0.000935841825
0.00078954348
0.000822703093
0.000823867177
0.000840460929
0.000862993198
0.000886200267
0.000906839097
0.000923692237
0.000936864137
0.000946965987
0.00095470247
0.000960703593
0.000965459193
0.000968806793
0.000970093447
0.000969146123
0.000967512546
0.000965298527
0.000962588984
0.000959460726
0.000955992617
0.000952273669
0.00094840936
0.00094452577
0.000940770706
0.000937310711
0.000934322844
0.000931980572
0.000789650148
0.000823057573
0.000824482518
0.00084138814
0.000864279595
0.000887876233
0.000908911411
0.000926147397
0.000939676895
0.000950107659
0.000958146952
0.000964430809
0.000968739344
0.00097074727
0.000970678121
0.000969725121
0.000968021907
0.000965664908
0.000962730351
0.000959287815
0.000955411946
0.000951192397
0.000946742631
0.000942206699
0.000937762658
0.000933620663
0.000930013504
0.000927164728
0.000789741332
0.000823360567
0.000825010185
0.000842187209
0.000865395338
0.00088934102
0.000910738491
0.000928333068
0.000942207403
0.000952966162
0.000961318856
0.000967077065
0.000970226744
0.000971337898
0.000971330658
0.000970386056
0.00096862497
0.000966130402
0.000962964574
0.000959183948
0.000954852738
0.000950055114
0.00094490785
0.000939571444
0.000934257935
0.000929232132
0.000924793726
0.000921257891
0.000789818997
0.000823618898
0.000825462103
0.000842875618
0.00086636323
0.000890621621
0.000912349611
0.000930278583
0.000944482865
0.000955564798
0.00096337742
0.000968176242
0.000970822449
0.000972057346
0.000972136415
0.000971226498
0.000969432607
0.000966819703
0.000963429826
0.000959298522
0.000954470192
0.000949013794
0.000943040436
0.000936721459
0.000930304129
0.000924119925
0.000918538942
0.000914074318
0.000789884622
0.000823837668
0.000825847117
0.000843466236
0.000867199932
0.000891737539
0.000913765547
0.000932003995
0.000946508119
0.000957093824
0.000964149814
0.000968761331
0.000971580901
0.000972971072
0.000973174102
0.000972341007
0.000970557871
0.000967866402
0.00096428136
0.000959807595
0.000954456576
0.000948266719
0.000941327528
0.00093380801
0.000925985597
0.000918232386
0.000911122923
0.000905345872
0.000789939362
0.000824020819
0.000826171948
0.000843968686
0.000867917675
0.000892702759
0.000915000545
0.000933403243
0.00094757529
0.000957595815
0.000964700496
0.000969518302
0.000972545671
0.000974134694
0.00097451454
0.000973819675
0.000972114646
0.000969413235
0.000965694844
0.000960921166
0.000955054014
0.00094807881
0.000940036061
0.000931065897
0.000921436402
0.000911604594
0.000902376425
0.000894700756
0.000789984163
0.000824171535
0.000826441899
0.00084439037
0.000868525599
0.000893527228
0.000915883828
0.000934083427
0.000947870678
0.000958087268
0.000965412478
0.000970469542
0.000973748105
0.00097559161
0.0009762176
0.000975744476
0.000974214135
0.000971609071
0.000967865939
0.000962889086
0.000956569009
0.000948806577
0.000939551401
0.00092886463
0.000916902804
0.000904327087
0.000892112101
0.000881607631
0.000790019846
0.000824292543
0.000826661398
0.00084473728
0.00086901062
0.000894012837
0.000916256957
0.000934313505
0.000948283063
0.000958716447
0.000966290189
0.000971624446
0.000975204936
0.000977369501
0.000978327138
0.000978182901
0.000976957812
0.000974602381
0.000971005564
0.000966002227
0.000959386731
0.000950933102
0.000940437646
0.000927704406
0.00091290294
0.00089663628
0.000880104225
0.000865165553
0.000790033527
0.000824375962
0.000826807792
0.00084493197
0.000869216226
0.000894160093
0.000916421775
0.000934636077
0.000948803501
0.000959474607
0.000967325861
0.000972977502
0.000976915091
0.000979475352
0.000980863973
0.000981178491
0.000980425034
0.000978526988
0.000975326819
0.000970583872
0.000963974386
0.000955098641
0.000943448364
0.00092855029
0.000910084074
0.000888633908
0.000865599202
0.000843429324
0.000790023923
0.000824387398
0.000826838137
0.000844965108
0.000869235736
0.000894266672
0.000916654663
0.000935036812
0.000949415361
0.000960342866
0.000968498557
0.000974506345
0.000978856242
0.000981889789
0.000983816985
0.000984737512
0.00098465442
0.000983477444
0.000981015725
0.00097696083
0.00097086313
0.000962107636
0.000949635935
0.000932262686
0.000909542064
0.000881286053
0.00084789445
0.000812178264
0.000790011651
0.000824358916
0.000826814046
0.000844968804
0.000869296889
0.000894420207
0.000916939722
0.000935495967
0.000950094544
0.000961292163
0.000969773652
0.000976170371
0.000980981891
0.000984561601
0.000987133575
0.000988813205
0.000989619165
0.000989472678
0.000988181657
0.000985406531
0.000980603697
0.000972735787
0.000959980646
0.000940807361
0.000913417468
0.000875841208
0.000826562339
0.000771905027
0.000790004884
0.000824346215
0.000826812578
0.000845000055
0.000869388636
0.00089460589
0.000917257676
0.000935988954
0.000950810097
0.000962283879
0.00097110328
0.000977910619
0.000983220034
0.00098740404
0.000990711589
0.000993290033
0.000995198317
0.000996406622
0.00099677823
0.000996026257
0.000993595003
0.000987869172
0.000976654264
0.000957846658
0.000927106843
0.000878611266
0.000807856168
0.000739342962
0.000790002633
0.000824345938
0.000826827945
0.000845050134
0.000869498683
0.000894807053
0.000917586515
0.00093648723
0.000951525428
0.000963271374
0.000972428118
0.000979651649
0.000985474678
0.000990295027
0.000994396274
0.00099797347
0.00100115173
0.00100399358
0.00100649159
0.00100853964
0.00100961935
0.00100781957
0.00100177336
0.000988600116
0.0009623643
0.00091302036
0.000831016427
0.000758351543
0.000754520102
0.000837736815
0.000885276922
0.000937746097
0.000987160784
0.00102955745
0.00106360187
0.00109017361
0.00111086476
0.0011271253
0.00114009871
0.00115062826
0.00115931009
0.00116656451
0.00117269287
0.00117791535
0.00118239633
0.00118626187
0.0011896114
0.00119252554
0.00119507136
0.00119730599
0.00119927898
0.00120103403
0.00120261007
0.00120404196
0.001205361
0.00120659517
0.000771501132
0.000773525433
0.000758520687
0.000767401526
0.000789781246
0.000819505274
0.00085160417
0.000882851595
0.000911594072
0.000937138548
0.00095937897
0.000978551873
0.000995034219
0.00100921976
0.00102146634
0.00103207949
0.00104131203
0.00104937065
0.00105642489
0.00106261539
0.00106806078
0.00107286292
0.00107711093
0.001080884
0.00108425351
0.0010872844
0.00109003609
0.00109256303
0.000791453384
0.000787120178
0.000747908539
0.000730792004
0.000728395148
0.000736329419
0.000750600405
0.000768064575
0.000786666512
0.000805112878
0.000822618005
0.000838774864
0.000853435966
0.000866606039
0.000878369195
0.000888844979
0.00089816244
0.00090644628
0.000913810964
0.00092035928
0.000926182991
0.000931364317
0.000935977582
0.00094009074
0.000943766618
0.000947063863
0.000950037574
0.000952739668
0.000801363937
0.000808449386
0.000768050328
0.000744581987
0.000732834551
0.000729875738
0.000733013437
0.000739978378
0.000749197641
0.000759600956
0.000770433723
0.000781185275
0.000791536535
0.000801303541
0.000810392662
0.000818769643
0.000826437547
0.000833421212
0.000839757172
0.000845487577
0.000850656747
0.000855309358
0.00085948962
0.000863241019
0.000866606326
0.000869627691
0.000872346701
0.000874804351
0.000805281638
0.000820723273
0.000784166333
0.000761966001
0.000749419779
0.000743738394
0.000742669434
0.000744520648
0.000748235438
0.000753149149
0.000758791559
0.000764817667
0.000770978485
0.000777095463
0.000783041852
0.000788730802
0.000794106199
0.000799134846
0.000803800241
0.00080809793
0.000812032149
0.000815613456
0.000818857129
0.000821782127
0.000824410424
0.000826766539
0.000828877177
0.000830770861
0.000807382512
0.000827652946
0.000794251646
0.000774202923
0.000763069959
0.000757938767
0.000756454457
0.000756993464
0.000758675394
0.000761056007
0.000763886352
0.000767009538
0.000770315825
0.00077371816
0.000777142041
0.000780523626
0.000783809881
0.000786958353
0.000789936457
0.000792720533
0.000795294796
0.00079765033
0.000799784222
0.000801698873
0.000803401464
0.000804903509
0.000806220446
0.000807371198
0.000808666576
0.000831927254
0.000800747901
0.000782417581
0.000772684441
0.00076863824
0.000767826035
0.000768563307
0.000769970581
0.000771651931
0.000773439607
0.000775272151
0.00077713181
0.000779009793
0.000780892467
0.000782759632
0.000784586884
0.000786348457
0.000788019589
0.000789578218
0.00079100604
0.000792289083
0.00079341801
0.000794388262
0.0007952001
0.000795858567
0.000796373341
0.000796758452
0.000809512153
0.00083477344
0.0008051919
0.000788186546
0.000779584589
0.000776505434
0.00077645788
0.000777719189
0.00077939665
0.000781100293
0.000782683647
0.000784118424
0.000785425813
0.000786636089
0.000787771208
0.000788841122
0.000789845395
0.000790776186
0.000791621296
0.00079236678
0.000792998951
0.000793505865
0.000793878421
0.000794111189
0.000794203026
0.00079415749
0.000793983047
0.000793693025
0.000810112288
0.000836789784
0.000808385975
0.000792417801
0.000784737518
0.000782475347
0.000783116351
0.000784913623
0.000786968096
0.000788895954
0.000790563466
0.000791959197
0.000793123013
0.00079410365
0.000794940143
0.000795657516
0.000796268041
0.000796774096
0.000797171286
0.000797451276
0.000797604123
0.000797620148
0.000797491463
0.000797213223
0.000796784662
0.000796209893
0.000795498418
0.000794665292
0.000810560202
0.000838286717
0.00081077496
0.000795630016
0.000788711964
0.000787148674
0.000788402518
0.000790703977
0.000793146203
0.000795350052
0.000797192988
0.000798677564
0.000799857891
0.000800795538
0.000801540278
0.000802125719
0.000802570705
0.000802882367
0.000803059477
0.000803095518
0.000802981281
0.000802707039
0.000802264405
0.000801647965
0.000800856693
0.000799895118
0.000798774168
0.000797511569
0.000810907121
0.000839440593
0.000812623418
0.000798141343
0.000791859268
0.000790898428
0.000792699645
0.000795471215
0.000798295418
0.000800793549
0.000802850603
0.000804480205
0.000805748392
0.000806727643
0.000807476678
0.000808035832
0.000808428519
0.000808664503
0.000808743518
0.000808658619
0.000808399112
0.000807953076
0.00080730963
0.000806461001
0.000805358353
0.000803652165
0.000801947141
0.000800272372
0.000811183994
0.000840357488
0.000814094815
0.000800154687
0.000794407767
0.000793968778
0.000796259443
0.00079946741
0.000802662512
0.000805462957
0.000807757402
0.000809567094
0.000810967265
0.000812039345
0.000812849663
0.000813444301
0.000813850418
0.000814079557
0.000814131402
0.000813997361
0.000813663802
0.000813114922
0.000811393912
0.000809559499
0.000807607317
0.000805211528
0.000803000499
0.000801017522
0.000811410198
0.000841103684
0.000815293305
0.000801803032
0.000796510686
0.000796526173
0.000799255163
0.000802866911
0.000806418643
0.000809523457
0.00081207082
0.000814086669
0.00081565287
0.000816857782
0.000817773867
0.000818451906
0.000818921997
0.000819196709
0.000819274829
0.000819095631
0.000817505182
0.000815747699
0.000812897218
0.000810055138
0.000807295379
0.000804676137
0.000802255613
0.000800089178
0.000811598321
0.00084172221
0.000816287364
0.000803175703
0.0007982732
0.000798686926
0.000801809551
0.000805794413
0.000809686911
0.000813094195
0.000815904734
0.000818147102
0.000819907812
0.000821280451
0.000822342307
0.000823147836
0.000823729235
0.000824099276
0.000823178598
0.000821666449
0.000818745703
0.000815708812
0.000812613021
0.000809520368
0.000806498125
0.000803617806
0.000800952691
0.000798573896
0.00081175683
0.000842241912
0.000817123241
0.000804334002
0.000799768837
0.000800533719
0.000804011071
0.00080834083
0.000812557822
0.000816263137
0.000819343387
0.000821828539
0.00082380834
0.000825380472
0.000826626119
0.00082760261
0.000827867212
0.000826929214
0.000824619735
0.000821731919
0.000818626534
0.000815360294
0.000811995969
0.000808604505
0.000805265808
0.000802067721
0.00079910288
0.000796463338
0.000811891561
0.000842682628
0.000817832912
0.000805320824
0.000801049786
0.000802126042
0.00080592417
0.000810573086
0.000815098449
0.000819095738
0.000822449548
0.000825190524
0.000827410984
0.00082921217
0.000830678598
0.00083078632
0.000829769894
0.000827428576
0.000824709775
0.000821665071
0.000818346708
0.000814812345