/*--------------------------------*- C++ -*----------------------------------*\
| =========                 |                                                 |
| \\      /  F ield         | foam-extend: Open Source CFD                    |
|  \\    /   O peration     | Version:     4.1                                |
|   \\  /    A nd           | Web:         http://www.foam-extend.org         |
|    \\/     M anipulation  |                                                 |
\*---------------------------------------------------------------------------*/
FoamFile
{
    version     2.0;
    format      ascii;
    class       volVectorField;
    location    "0.35";
    object      U;
}
// * * * * * * * * * * * * * * * * * * * * * * * * * * * * * * * * * * * * * //

dimensions      [0 1 -1 0 0 0 0];

internalField   nonuniform List<vector> 
35840
(
(3.94086033 0.268528629 0.261844347)
(3.20795366 0.371831755 0.357379733)
(2.4382964 0.266507019 0.249860655)
(1.72034818 0.156944939 0.141978617)
(1.29366966 0.0888167292 0.0772234225)
(1.05218383 0.0517244537 0.0439395069)
(0.893426901 0.0312044808 0.0270975646)
(0.785217165 0.0189925828 0.0180822981)
(0.711694888 0.011520544 0.0131451456)
(0.660045772 0.00694474711 0.0104227308)
(0.622064115 0.00408957418 0.00881457943)
(0.593084567 0.00225662232 0.00773599093)
(0.570322921 0.0010556521 0.00691563477)
(0.552022802 0.000259081719 0.00623165898)
(0.537050421 -0.000272374331 0.005629353)
(0.524649767 -0.000624965177 0.00508513612)
(0.51429104 -0.000852590921 0.00458893498)
(0.505580835 -0.00099040731 0.00413530019)
(0.498220622 -0.00106175436 0.00372042319)
(0.491969428 -0.00108160311 0.00334112001)
(0.486627299 -0.00106011603 0.002994367)
(0.482024461 -0.00100480676 0.00267744539)
(0.478014003 -0.00092161144 0.00238809073)
(0.474467287 -0.000815482564 0.00212448957)
(0.471270886 -0.00069086535 0.00188525591)
(0.468324703 -0.000552023762 0.00166938528)
(0.465540919 -0.000403208248 0.00147618421)
(0.462843528 -0.000248688701 0.00130518382)
(4.52124958 0.40995349 0.331399969)
(4.20224595 0.638137384 0.509000289)
(3.63676275 0.543496835 0.407274774)
(2.94289323 0.391291049 0.261505507)
(2.41564945 0.267503758 0.152218929)
(2.06112659 0.18154555 0.0859709083)
(1.80859792 0.124038115 0.0502560825)
(1.62433609 0.0850728238 0.0317474792)
(1.49027191 0.0584689662 0.0220763288)
(1.39084356 0.040330409 0.0169200769)
(1.31481285 0.0278823105 0.014003139)
(1.25515412 0.0192138635 0.0121463111)
(1.20736927 0.0130782513 0.0108009362)
(1.16842847 0.00866528401 0.00972712739)
(1.13625394 0.00544456995 0.0088161196)
(1.10939291 0.0030691976 0.00801575217)
(1.08679432 0.00131155322 0.00729932046)
(1.06767141 1.97814542e-05 0.00665129339)
(1.05140738 -0.000909196301 0.00606071749)
(1.03750766 -0.0015465035 0.00551862351)
(1.02556691 -0.00194286985 0.00501751941)
(1.01524386 -0.0021358474 0.00455149397)
(1.00624394 -0.0021547422 0.00411612103)
(0.99830982 -0.00202393863 0.0037081825)
(0.991214639 -0.00176508854 0.00332550296)
(0.984757603 -0.00139858344 0.00296682465)
(0.978761333 -0.000944456521 0.00263166964)
(0.973070476 -0.000422811157 0.00232017137)
(4.44213358 0.221361661 0.337952045)
(4.08278428 0.436516689 0.518819357)
(3.6571375 0.463116711 0.418089621)
(3.13712384 0.408854773 0.275889461)
(2.71978561 0.331888254 0.166458507)
(2.4218249 0.257596842 0.0961056604)
(2.19810885 0.195665561 0.0564762265)
(2.02636761 0.147040728 0.0358955296)
(1.89487363 0.109782828 0.0253572633)
(1.79246971 0.0816356677 0.019820091)
(1.71060459 0.0605253007 0.0166892238)
(1.64385279 0.0447001986 0.0146503487)
(1.58866867 0.0327835902 0.0131054546)
(1.54254742 0.0237396472 0.0118157166)
(1.50366958 0.0168124319 0.0106889945)
(1.47068816 0.0114641945 0.00968699061)
(1.4425747 0.00731849778 0.00879071636)
(1.41851964 0.00411331913 0.00798702325)
(1.39786869 0.00166548203 0.00726377003)
(1.38008259 -0.000155265859 0.00660911025)
(1.36470344 -0.00144352001 0.0060119353)
(1.35133951 -0.00227045289 0.00546245724)
(1.339649 -0.00269212156 0.00495264145)
(1.32932956 -0.00275566166 0.00447625262)
(1.3201116 -0.00250360098 0.00402872813)
(1.31175384 -0.00197674142 0.00360701142)
(1.30404068 -0.00121598627 0.00320934991)
(1.29678083 -0.000263323313 0.00283505516)
(4.41370728 0.123370115 0.337929296)
(3.97527176 0.285996081 0.51684365)
(3.52614241 0.346942593 0.410945324)
(3.04826543 0.341762988 0.267056517)
(2.6965033 0.304727643 0.158688788)
(2.46049506 0.256419267 0.0893126078)
(2.28810599 0.208531003 0.0503498907)
(2.1560175 0.166245619 0.0306495978)
(2.05357886 0.130842369 0.0211780988)
(1.97172168 0.102000223 0.0166848184)
(1.90395834 0.0788704309 0.0144679042)
(1.84659296 0.0604766287 0.0131699551)
(1.79746369 0.0458916429 0.0121815544)
(1.75511534 0.0343154038 0.0112828985)
(1.71848482 0.0250991295 0.0104172689)
(1.68675103 0.0177403825 0.0095824334)
(1.65924237 0.0118626706 0.00878935634)
(1.63538702 0.00718983241 0.00804749535)
(1.61468798 0.00352135926 0.00736065013)
(1.59670803 0.000711657487 0.00672749316)
(1.5810582 -0.00134667401 0.00614341548)
(1.56738966 -0.00273566049 0.00560262981)
(1.555387 -0.00352098926 0.00509913341)
(1.54476314 -0.00375922608 0.00462746819)
(1.53525578 -0.00350327712 0.0041831666)
(1.52662532 -0.00280617254 0.00376292076)
(1.51865392 -0.00172350399 0.00336458159)
(1.51114537 -0.000314722547 0.00298705108)
(4.40562821 0.0838878478 0.338530392)
(3.92709327 0.205874184 0.518667666)
(3.43458168 0.264639399 0.409526188)
(2.94273646 0.274644322 0.261034256)
(2.60542772 0.257672508 0.150311767)
(2.39687658 0.227969782 0.0806004479)
(2.2554602 0.194211322 0.0421478772)
(2.15329304 0.161477456 0.0232704761)
(2.07740073 0.13204949 0.0147417095)
(2.01793649 0.106578172 0.0111887888)
(1.9684961 0.0849925997 0.0098473423)
(1.92582852 0.0669322084 0.00933301623)
(1.88834959 0.0519348363 0.009020537)
(1.8551938 0.0395315958 0.00868574897)
(1.82582941 0.02929675 0.00827960671)
(1.79987908 0.0208699112 0.00781410474)
(1.77702418 0.0139606582 0.00731613532)
(1.75696488 0.00834314231 0.00681034293)
(1.73940956 0.00384598566 0.00631382781)
(1.72407356 0.000340927827 0.0058360856)
(1.71068165 -0.00226880035 0.00538105709)
(1.6989685 -0.00405820933 0.00494953233)
(1.68867946 -0.00508871847 0.00454028443)
(1.67957142 -0.0054153151 0.00415119948)
(1.6714135 -0.00509226339 0.00378008532)
(1.66398814 -0.00417733722 0.00342511994)
(1.65709273 -0.00273467784 0.00308507066)
(1.65054155 -0.000836302411 0.0027593679)
(4.40178177 0.0613580909 0.339164778)
(3.90241758 0.153224895 0.520513725)
(3.38074316 0.204411735 0.410098872)
(2.86921605 0.221082428 0.258748071)
(2.5275073 0.215749878 0.145979621)
(2.32477338 0.19808459 0.0755296459)
(2.19489233 0.174637624 0.0370220738)
(2.10723564 0.149791358 0.0183399259)
(2.04672604 0.125983657 0.0101166385)
(2.00216188 0.104282115 0.00691328416)
(1.96645393 0.0850314461 0.00592981288)
(1.9360611 0.0682348652 0.00577172107)
(1.90933603 0.0537360472 0.00580767142)
(1.8854886 0.0413132774 0.00580467522)
(1.86413713 0.0307322831 0.00570619002)
(1.84508242 0.0217748509 0.00552025496)
(1.82818311 0.014252408 0.00527283007)
(1.81330043 0.00801037 0.00498973692)
(1.80028119 0.00292693265 0.00469057773)
(1.78895469 -0.00109153452 0.00438790455)
(1.77913869 -0.00411703499 0.00408908728)
(1.77063936 -0.00620616282 0.00379797756)
(1.76325742 -0.00740703501 0.00351594297)
(1.75679119 -0.00776578593 0.00324300302)
(1.75103994 -0.00733211152 0.00297862416)
(1.7458075 -0.00616374527 0.00272218698)
(1.7409061 -0.00432965622 0.0024732596)
(1.73616045 -0.0019117405 0.0022317445)
(4.39956833 0.0466868161 0.339653632)
(3.88830411 0.117720002 0.521953884)
(3.34831815 0.161235783 0.411269441)
(2.82103447 0.180136349 0.258566076)
(2.47121711 0.181405223 0.144563505)
(2.26667637 0.171517827 0.0735009329)
(2.13923788 0.155416663 0.0347876416)
(2.05691792 0.136670123 0.0160496081)
(2.00343339 0.117520753 0.00782554344)
(1.96665054 0.0991759004 0.0046431344)
(1.93889658 0.0822102884 0.00368834916)
(1.9162762 0.0668518006 0.00357041098)
(1.89692703 0.0531431026 0.00366503854)
(1.8799442 0.0410328367 0.00374009174)
(1.8649045 0.0304283042 0.00373523739)
(1.8516157 0.0212256011 0.00365355485)
(1.83997198 0.0133262803 0.00351640265)
(1.82988419 0.00664572931 0.00334586323)
(1.82125269 0.00111624122 0.0031588121)
(1.8139588 -0.00331413901 0.00296618914)
(1.80786523 -0.00668450918 0.00277463507)
(1.80281591 -0.00902525772 0.00258757166)
(1.79864077 -0.0103641966 0.00240625457)
(1.7951591 -0.010732426 0.00223076945)
(1.7921837 -0.0101698638 0.00206067139)
(1.78952574 -0.00873010141 0.00189536047)
(1.78700015 -0.00648405714 0.00173430582)
(1.78443163 -0.00352193256 0.00157717489)
(4.39821746 0.0366453511 0.340043224)
(3.8796169 0.0929729735 0.523109992)
(3.32762515 0.12954777 0.412496179)
(2.78861439 0.14815933 0.259133553)
(2.4311432 0.152908144 0.144408752)
(2.22290029 0.148071108 0.0729512526)
(2.09464428 0.137255427 0.0341036834)
(2.01362781 0.123237079 0.0153195616)
(1.96287504 0.107923918 0.00705934504)
(1.92968154 0.0924963554 0.00383006146)
(1.90599444 0.0776328635 0.00281388588)
(1.8876728 0.0636977875 0.00262811444)
(1.87268689 0.0508684706 0.00266067097)
(1.86001851 0.0392158244 0.00268757505)
(1.84917302 0.0287535611 0.00265148115)
(1.83991848 0.0194680251 0.00255534456)
(1.83213219 0.0113362394 0.00241887937)
(1.82572339 0.0043363959 0.00226187655)
(1.82059934 -0.0015470425 0.00209880948)
(1.81665417 -0.00632232724 0.00193874964)
(1.81376068 -0.00999116562 0.0017867631)
(1.81177227 -0.0125525528 0.00164486919)
(1.81052381 -0.0140081873 0.00151327151)
(1.80983441 -0.0143683449 0.00139124479)
(1.80951155 -0.0136579845 0.00127765193)
(1.80935651 -0.0119224213 0.00117124848)
(1.80917114 -0.00923179233 0.00107083192)
(1.80876573 -0.00568354208 0.000975322031)
(4.39732375 0.0293696515 0.340349934)
(3.87389555 0.0747894494 0.5240061)
(3.313744 0.105396529 0.413536755)
(2.76611463 0.12259364 0.259833591)
(2.40222334 0.128955454 0.144689238)
(2.1900728 0.127293985 0.0729981136)
(2.05990792 0.120184014 0.0340843913)
(1.97853668 0.109733853 0.0152901978)
(1.92854806 0.0974989097 0.00701715454)
(1.89685839 0.0845418965 0.00375670542)
(1.87515036 0.0715520267 0.00268842775)
(1.85910978 0.0589581999 0.00243487637)
(1.84658971 0.0470197392 0.00239358247)
(1.83649122 0.0358911827 0.00234891961)
(1.82826503 0.0256646246 0.00224858235)
(1.82164403 0.0163970026 0.00209795654)
(1.81648467 0.00812791507 0.00191756671)
(1.81268512 0.000890901978 0.00172700783)
(1.81014845 -0.00528062879 0.00154016542)
(1.8087659 -0.0103506021 0.0013654831)
(1.80840871 -0.0142806856 0.00120713388)
(1.80892586 -0.0170341181 0.00106634486)
(1.81014358 -0.0185809912 0.000942676133)
(1.81186707 -0.0189048964 0.000834835502)
(1.81388436 -0.0180103687 0.000741140514)
(1.81597239 -0.0159300974 0.000659809354)
(1.81790531 -0.0127307595 0.000589036481)
(1.81946474 -0.00851644967 0.000527006633)
(4.39669924 0.0238538459 0.340587346)
(3.86993735 0.060889534 0.524692517)
(3.30405939 0.0864747491 0.414371323)
(2.7500474 0.101816185 0.260485445)
(2.38094481 0.108644616 0.145089078)
(2.16518058 0.108835327 0.0732525273)
(2.03280169 0.104212996 0.0343002257)
(1.95037759 0.0963570401 0.0155070049)
(1.90022295 0.0865022662 0.00723399698)
(1.86899514 0.0755579145 0.00396030308)
(1.84818322 0.0641672501 0.00286245159)
(1.83333948 0.0527710359 0.00256512751)
(1.8222257 0.0416679367 0.00247143364)
(1.81368112 0.0310632241 0.0023713657)
(1.80711555 0.0211029111 0.00221655428)
(1.80223617 0.0118970901 0.00201473925)
(1.79888467 0.00353623542 0.00178773213)
(1.79695158 -0.00389799351 0.00155572922)
(1.79633665 -0.0103261789 0.00133305108)
(1.79692836 -0.0156678538 0.00112823713)
(1.79859418 -0.0198422848 0.000945310099)
(1.80117508 -0.0227722421 0.000785410456)
(1.80448317 -0.024390157 0.00064808106)
(1.80830234 -0.0246463373 0.000532031903)
(1.81239171 -0.0235184782 0.000435485686)
(1.81649227 -0.0210213347 0.000356407944)
(1.82033706 -0.0172150001 0.000292713278)
(1.82366461 -0.0122101899 0.000242355687)
(4.39624652 0.0195280573 0.340770453)
(3.86709257 0.0499284206 0.52522009)
(3.29706823 0.0712849668 0.415030496)
(2.73825479 0.0846531396 0.261040622)
(2.36496139 0.0912684051 0.145484143)
(2.14601949 0.0924116486 0.0735512832)
(2.01143616 0.089376584 0.0345717193)
(1.92767197 0.083335882 0.0157791614)
(1.87687928 0.0752527789 0.00750786738)
(1.84554512 0.0658805895 0.00422795944)
(1.82502087 0.0557894295 0.00311343421)
(1.8107564 0.045398935 0.00278976982)
(1.80043997 0.0350165186 0.00266307207)
(1.79286013 0.0248724584 0.0025265806)
(1.78739356 0.0151463307 0.002334293)
(1.78372767 0.00598619095 0.00209540136)
(1.78169404 -0.00247735068 0.00183253954)
(1.78118002 -0.0101210253 0.00156656072)
(1.78208532 -0.0168221307 0.00131229069)
(1.78429923 -0.0224556916 0.00107840033)
(1.78768711 -0.0268954276 0.000869110444)
(1.7920821 -0.030017983 0.000685866332)
(1.7972805 -0.0317105737 0.000528443533)
(1.80304021 -0.0318815993 0.000395715645)
(1.80908324 -0.0304733387 0.000286144296)
(1.81510304 -0.027475416 0.000197982725)
(1.8207771 -0.0229370556 0.000129351628)
(1.82578475 -0.01697563 7.82257588e-05)
(4.39590774 0.0160435048 0.340912081)
(3.86497917 0.0410622076 0.525628437)
(3.29186337 0.0588331589 0.41554958)
(2.72936933 0.0702700897 0.261496794)
(2.35269827 0.07629187 0.145833703)
(2.13101848 0.0777940084 0.073834831)
(1.99436637 0.0756977357 0.0348345028)
(1.90916905 0.0708693411 0.0160399979)
(1.85749186 0.0640512083 0.00776803444)
(1.82571617 0.0558538309 0.00448278847)
(1.80510095 0.046765119 0.00335658352)
(1.79102206 0.0371652641 0.00301532962)
(1.78111155 0.0273501879 0.00286686451)
(1.77411815 0.0175563191 0.00270626022)
(1.76939264 0.00798073283 0.00248878132)
(1.76660791 -0.00120345238 0.00222428823)
(1.76559005 -0.00983486549 0.00193590266)
(1.7662277 -0.0177543106 0.00164492735)
(1.76842542 -0.0247983656 0.00136626279)
(1.77207738 -0.0307967543 0.00110867977)
(1.77705041 -0.0355733401 0.000876572745)
(1.78317206 -0.0389512701 0.000671625134)
(1.79022233 -0.0407625234 0.000493931645)
(1.79792914 -0.0408617478 0.000342795875)
(1.80596906 -0.0391436428 0.000217150412)
(1.81397463 -0.0355621777 0.00011572704)
(1.82154983 -0.0301489623 3.707868e-05)
(1.82829352 -0.0230271308 -2.05060793e-05)
(4.39564687 0.0131774316 0.341022479)
(3.86336178 0.0337465391 0.525947964)
(3.28787642 0.0484544513 0.415960841)
(2.72250127 0.0580754996 0.261868)
(2.34308108 0.063306786 0.14613096)
(2.11905343 0.0647849821 0.0740855229)
(1.9805083 0.0631695096 0.0350690161)
(1.89387919 0.059098316 0.0162707083)
(1.84119192 0.0531378426 0.00799577137)
(1.8087671 0.0457740122 0.00470462135)
(1.78780586 0.0374131459 0.00356857827)
(1.77363468 0.0283871639 0.00321390072)
(1.76384635 0.0189678101 0.00304954053)
(1.75716159 0.00938426373 0.00287163073)
(1.75291383 -0.000161530771 0.00263603313)
(1.75076819 -0.00948215786 0.00235299485)
(1.75055191 -0.0183935718 0.00204596242)
(1.75216133 -0.026705977 0.00173620705)
(1.75551226 -0.0342174933 0.00143847945)
(1.76051034 -0.0407109837 0.00116153966)
(1.76703009 -0.0459549332 0.000909882328)
(1.77489817 -0.0497093706 0.00068538441)
(1.78388 -0.0517376223 0.000488461503)
(1.79367064 -0.0518242801 0.000318872617)
(1.803892 -0.0497988989 0.000176109269)
(1.81409923 -0.0455635851 5.95603994e-05)
(1.82379895 -0.0391209027 -3.15186444e-05)
(1.83248029 -0.0305966947 -9.82038609e-05)
(4.39544066 0.0107827606 0.341109636)
(3.86208949 0.0276192056 0.526201675)
(3.28473858 0.039693476 0.416290561)
(2.71705706 0.0476436614 0.262170955)
(2.33536632 0.0519989583 0.146380567)
(2.10931593 0.0532145908 0.0743013667)
(1.96905263 0.0517635611 0.0352723058)
(1.88103466 0.0481136585 0.0164695981)
(1.82727671 0.0426922228 0.00819055148)
(1.79406824 0.0358790181 0.00489324623)
(1.77257763 0.028003871 0.00374844398)
(1.75810166 0.0193471599 0.00338271686)
(1.74820905 0.0101487127 0.00320577402)
(1.74160409 0.000620657055 0.0030143324)
(1.73761223 -0.00904037984 0.00276466124)
(1.73589979 -0.0186418337 0.00246735399)
(1.73630373 -0.0279845979 0.00214577152)
(1.73873672 -0.0368537657 0.00182084405)
(1.74313543 -0.0450112235 0.00150712489)
(1.74942747 -0.0521911834 0.00121327151)
(1.75750537 -0.0581001493 0.00094378064)
(1.76720381 -0.0624229613 0.000700651216)
(1.77827919 -0.0648365603 0.000484564467)
(1.79039326 -0.0650327849 0.000295720684)
(1.80310409 -0.062750398 0.000134275767)
(1.81586936 -0.0578146626 5.02189726e-07)
(1.82806664 -0.0501799363 -0.000105303927)
(1.8390341 -0.0399673609 -0.000183171417)
(4.39527356 0.00875947941 0.341179642)
(3.86106226 0.022432368 0.526406729)
(3.28220361 0.0322318964 0.416559061)
(2.71263239 0.0386655403 0.262420703)
(2.32903289 0.0421278629 0.14659037)
(2.10122119 0.0429409837 0.0744860396)
(1.95939519 0.0414423043 0.0354473363)
(1.87004428 0.0379717601 0.0166404531)
(1.81518762 0.0328465214 0.0083570929)
(1.78110221 0.0263565529 0.00505389924)
(1.75894085 0.0187617045 0.00390135413)
(1.74398542 0.0102903669 0.0035262876)
(1.73379285 0.00114539312 0.00333888936)
(1.72706135 -0.00848586175 0.00313636864)
(1.72311838 -0.0184206357 0.00287547676)
(1.72164121 -0.0284699255 0.00256675105)
(1.72248629 -0.0384276987 0.00223309145)
(1.72559421 -0.0480602206 0.00189508073)
(1.73093597 -0.0570963487 0.00156702114)
(1.7384762 -0.0652204359 0.001257375)
(1.74814157 -0.0720698516 0.00097050045)
(1.75979021 -0.0772396855 0.00070837808)
(1.77318146 -0.0802975671 0.000471871176)
(1.78794832 -0.0808114506 0.000261609702)
(1.80357768 -0.0783920846 7.85219498e-05)
(1.81940615 -0.0727493653 -7.59477318e-05)
(1.83464021 -0.0637573511 -0.000199963551)
(1.84840847 -0.05151667 -0.000291848293)
(4.39513496 0.0070379087 0.341237078)
(3.86021204 0.0180125678 0.526575833)
(3.28010331 0.0258433876 0.416781708)
(2.708947 0.0309150923 0.262629568)
(2.32371144 0.0335102055 0.146768239)
(2.09434394 0.0338490043 0.0746446901)
(1.95108494 0.0321676313 0.0355986212)
(1.86045501 0.028708503 0.0167881507)
(1.8044853 0.0237006858 0.0085007832)
(1.76945123 0.0173578823 0.00519227761)
(1.74650103 0.00987628066 0.00403298221)
(1.73091174 0.00143270961 0.00364988262)
(1.72023762 -0.00781088551 0.00345368447)
(1.71318001 -0.0176983216 0.00324229582)
(1.70907742 -0.0280689584 0.00297251193)
(1.70762719 -0.0387468756 0.00265437526)
(1.70871665 -0.0495286949 0.00231034812)
(1.71232824 -0.0601701369 0.00196068034)
(1.71848456 -0.0703725729 0.00161930257)
(1.72720807 -0.0797712845 0.0012942971)
(1.73848334 -0.0879280682 0.000989715599)
(1.75221672 -0.0943319204 0.000707343428)
(1.76819256 -0.098412555 0.000448058557)
(1.78602884 -0.0995721042 0.000212838709)
(1.80513919 -0.0972396557 3.47198626e-06)
(1.82471332 -0.0909503396 -0.000177051037)
(1.84373131 -0.0804441599 -0.00032459699)
(1.86102791 -0.0657695502 -0.000434723858)
(4.39501747 0.00556848912 0.341285344)
(3.85949177 0.0142360072 0.526718334)
(3.27832091 0.0203645366 0.416969954)
(2.70580419 0.0242256468 0.262807172)
(2.31913826 0.0260067567 0.146920935)
(2.08837425 0.0258475037 0.0747822556)
(1.94378605 0.0239062804 0.0357305552)
(1.85192222 0.0203496289 0.0169171669)
(1.79482827 0.0153350532 0.00862628231)
(1.75878348 0.00901074973 0.00531308457)
(1.73493739 0.00151440179 0.00414781698)
(1.71856819 -0.00702849162 0.00375781581)
(1.70723418 -0.0165000686 0.00355466512)
(1.69964651 -0.0267816314 0.00333647139)
(1.69516144 -0.0377439017 0.00305958239)
(1.69350517 -0.0492352661 0.00273360984)
(1.69460745 -0.0610670984 0.0023806825)
(1.69850834 -0.0729964988 0.00202056893)
(1.70530315 -0.0847072124 0.00166665)
(1.71509953 -0.0957905523 0.00132644719)
(1.72797344 -0.105729458 0.00100347436)
(1.74391726 -0.113890655 0.000699051777)
(1.76277812 -0.119532134 0.000413785514)
(1.78418857 -0.121835168 0.000148782797)
(1.80749878 -0.11997075 -9.33076019e-05)
(1.83172725 -0.11320789 -0.000307502095)
(1.85555632 -0.101062423 -0.000486260551)
(1.87740408 -0.0834693563 -0.000620755632)
(4.39491592 0.00431528055 0.341326939)
(3.85886855 0.0110126771 0.526841051)
(3.27677469 0.0156755348 0.417132223)
(2.70306517 0.0184731888 0.262960793)
(2.31512486 0.0195118614 0.147053854)
(2.08308719 0.0188658225 0.0749028907)
(1.93725072 0.0166322026 0.0358468419)
(1.84418741 0.0129172253 0.0170311221)
(1.78595625 0.00781922208 0.00873714311)
(1.74884148 0.00142900799 0.00541963587)
(1.7239959 -0.00617048864 0.00424908583)
(1.70670215 -0.0149047069 0.00385374372)
(1.69452593 -0.0247031344 0.00364546577)
(1.68619111 -0.0354918957 0.003422021)
(1.68107619 -0.0471838357 0.00313945813)
(1.67894312 -0.0596651907 0.00280711693)
(1.6797749 -0.0727781358 0.00244664742)
(1.68368561 -0.0862985869 0.00207720405)
(1.69086751 -0.0999095467 0.0017114593)
(1.70154779 -0.113171394 0.00135615923)
(1.71593922 -0.125492272 0.00101398687)
(1.73417594 -0.136104716 0.000685418665)
(1.75622909 -0.144058602 0.000370341571)
(1.78180228 -0.148245102 6.95661201e-05)
(1.81021599 -0.147470226 -0.000213581225)
(1.84030394 -0.140597015 -0.00047170202)
(1.87036215 -0.126765843 -0.000692448217)
(1.89821499 -0.105681047 -0.00085983553)
(4.39482666 0.00325165787 0.341363659)
(3.85831941 0.00827576787 0.526948888)
(3.27540756 0.0116869202 0.417274615)
(2.7006325 0.0135641705 0.263095797)
(2.31153784 0.013944856 0.147171098)
(2.07832191 0.0128496916 0.0750098314)
(1.9313 0.0103266031 0.0359503303)
(1.83706216 0.00643296941 0.0171326365)
(1.77767748 0.00121704042 0.00883565468)
(1.73943322 -0.00528168873 0.00551415594)
(1.71348532 -0.0130315359 0.00433964998)
(1.69512067 -0.0220086717 0.00394055894)
(1.68191125 -0.0321941643 0.0037284074)
(1.67259339 -0.0435672401 0.00350089892)
(1.66656893 -0.0560950531 0.00321396819)
(1.66363917 -0.0697183673 0.00287657297)
(1.66384822 -0.0843313114 0.00250978283)
(1.66739934 -0.0997537214 0.00213201756)
(1.67460775 -0.115695237 0.00175508921)
(1.68586075 -0.131711293 0.00138474122)
(1.70156693 -0.147153369 0.00102248476)
(1.72208117 -0.161119948 0.000667481392)
(1.74759433 -0.172420787 0.000318295465)
(1.7779815 -0.179576095 -2.52083114e-05)
(1.81261312 -0.180882286 -0.000359425763)
(1.85015566 -0.174584775 -0.000674297983)
(1.8884191 -0.159193865 -0.000950753273)
(1.92438014 -0.133957378 -0.00116096017)
(4.39474719 0.00235734087 0.341396761)
(3.85782856 0.00597430898 0.527045286)
(3.27418032 0.00833011522 0.417401432)
(2.69843922 0.00942630462 0.26321601)
(2.30828523 0.00924284817 0.147275636)
(2.07396729 0.00775682202 0.0751054169)
(1.92581024 0.00497639866 0.0360429415)
(1.83041615 0.000918377295 0.0172231688)
(1.76985931 -0.00441211396 0.00892322804)
(1.73042721 -0.0110210755 0.00559890114)
(1.7032758 -0.018924735 0.00442184864)
(1.68369173 -0.0281506653 0.00401994703)
(1.66924874 -0.038735965 0.003804803)
(1.6586914 -0.0507213659 0.00357424605)
(1.65144118 -0.0641419552 0.00328401606)
(1.64733687 -0.0790128761 0.00294260997)
(1.64648619 -0.0953072693 0.00257043349)
(1.6491922 -0.112923666 0.00218506504)
(1.65591709 -0.131640078 0.00179729306)
(1.66725256 -0.151052589 0.00141161281)
(1.68387531 -0.170498343 0.00102802367)
(1.70646804 -0.188967337 0.000643881755)
(1.73558497 -0.205016316 0.000255753436)
(1.77144253 -0.216713086 -0.000138251664)
(1.81362469 -0.221660133 -0.000534901782)
(1.86072125 -0.217174335 -0.000921532601)
(1.90997965 -0.200711641 -0.0012679774)
(1.9571619 -0.170627741 -0.00152560134)
(4.39467582 0.00161625456 0.341427083)
(3.85738553 0.00406784185 0.527132562)
(3.27306723 0.00555040549 0.417515593)
(2.69644149 0.00600134804 0.263324034)
(2.30530719 0.00535451525 0.147369477)
(2.069952 0.0035525236 0.07519109)
(1.92070299 0.000570927746 0.0361254557)
(1.82416809 -0.00360771127 0.0173035074)
(1.76242277 -0.00901409834 0.0090016978)
(1.72174987 -0.0156941195 0.00567583626)
(1.69329841 -0.023709406 0.00449691698)
(1.67234761 -0.0331391682 0.00409279104)
(1.65646517 -0.0440798114 0.00387534235)
(1.64439462 -0.0566414912 0.00364246319)
(1.63556699 -0.0709413323 0.00334962425)
(1.62984891 -0.0870910916 0.00300478586)
(1.6274052 -0.105175603 0.00262758902)
(1.62863973 -0.125217529 0.00223462247)
(1.63417739 -0.147122983 0.0018354276)
(1.64485564 -0.17060188 0.00143297808)
(1.66170046 -0.195057557 0.00102547364)
(1.68585896 -0.219443864 0.00060815379)
(1.71845409 -0.24209841 0.000175239637)
(1.76031788 -0.260581785 -0.00027740617)
(1.81155519 -0.271589085 -0.000747908619)
(1.87093663 -0.271069314 -0.00122182564)
(1.93515872 -0.2547243 -0.00165155716)
(1.99830629 -0.219198346 -0.00195504209)
(4.39461153 0.00101488077 0.341455141)
(3.856984 0.00252240723 0.527212175)
(3.27205286 0.00330158371 0.417618934)
(2.69461346 0.00323931278 0.26342149)
(2.30256961 0.00223488749 0.147453743)
(2.06623663 0.00020460138 0.0752671497)
(1.91593682 -0.00290304306 0.0361982226)
(1.81828037 -0.00713223076 0.0173752195)
(1.755339 -0.0125423918 0.00907279982)
(1.71338273 -0.0192147205 0.00574589619)
(1.68354546 -0.0272528675 0.00456546718)
(1.6610898 -0.0367858238 0.00415951925)
(1.64356558 -0.0479705839 0.00394016195)
(1.62970052 -0.060992634 0.00370527809)
(1.61891745 -0.0760637427 0.00340998567)
(1.61109082 -0.0934146043 0.00306157628)
(1.60642231 -0.113277874 0.00267871155)
(1.6054009 -0.135855381 0.00227666281)
(1.60881188 -0.16126082 0.00186331183)
(1.61776417 -0.189426123 0.00143968505)
(1.63370935 -0.219956951 0.00100184223)
(1.6584179 -0.251922661 0.000542999271)
(1.69385907 -0.283573326 5.61227601e-05)
(1.74190234 -0.311998695 -0.000462568038)
(1.80372406 -0.332799327 -0.00100765022)
(1.87886537 -0.339971688 -0.00156016844)
(1.96374135 -0.326287622 -0.00204846605)
(2.05031963 -0.285083421 -0.00237696888)
(4.39455387 0.00054078525 0.341481302)
(3.85662104 0.00130731876 0.527285009)
(3.27112996 0.00154182153 0.417712444)
(2.69294364 0.00109398329 0.263509128)
(2.30005849 -0.000160029132 0.147528453)
(2.06280692 -0.00232254544 0.0753337371)
(1.91150272 -0.00546530476 0.0362627016)
(1.81275508 -0.00965139165 0.0174399101)
(1.74862432 -0.0149635873 0.00913724726)
(1.70535959 -0.0215127188 0.00580951086)
(1.67407122 -0.0294385818 0.00462776374)
(1.64999377 -0.0389154171 0.00422014163)
(1.63064388 -0.0501586126 0.00399891914)
(1.61471325 -0.0634305797 0.00376187437)
(1.60159029 -0.0790456309 0.00346360515)
(1.59112454 -0.0973715905 0.0031104463)
(1.58351592 -0.118823448 0.00271961368)
(1.57929733 -0.143841671 0.00230436467)
(1.57937936 -0.172843442 0.00186997119)
(1.58513079 -0.206128429 0.00141437645)
(1.59847271 -0.243712101 0.000930479117)
(1.6219505 -0.285050439 0.000409371056)
(1.65871419 -0.328614863 -0.000155064094)
(1.71227595 -0.371286056 -0.000757916756)
(1.78585565 -0.407622699 -0.00136939357)
(1.88102011 -0.429099665 -0.00193289431)
(1.99492191 -0.423826545 -0.00228598826)
(2.11751556 -0.378538302 -0.00240667887)
(4.39450327 0.000182073987 0.341506258)
(3.8562972 0.000393192941 0.527351957)
(3.2702982 0.000229975173 0.417796497)
(2.69143113 -0.000482055432 0.26358675)
(2.29777469 -0.00187824434 0.147593784)
(2.05967042 -0.00407137262 0.075392246)
(1.90742034 -0.00714543923 0.0363204417)
(1.8076277 -0.0111766429 0.0174981465)
(1.74233477 -0.0162649758 0.00919531247)
(1.69776324 -0.0225428316 0.00586679295)
(1.66499089 -0.030177773 0.00468372471)
(1.6392117 -0.0393811161 0.00427433174)
(1.61789146 -0.0504191576 0.00405096245)
(1.59966128 -0.0636257056 0.00381111254)
(1.58384115 -0.0794164925 0.00350854844)
(1.57020949 -0.0983041149 0.0031481133)
(1.5589038 -0.120909768 0.00274468136)
(1.55042548 -0.147964859 0.00230806864)
(1.54572483 -0.180289581 0.00183881546)
(1.54635076 -0.218724911 0.00132893408)
(1.55465649 -0.263977337 0.000765019188)
(1.57403818 -0.316310172 0.000133715626)
(1.60913824 -0.374981161 -0.000569489042)
(1.66586597 -0.437330041 -0.00132259429)
(1.75097187 -0.497433033 -0.00206263197)
(1.87054618 -0.544153879 -0.00267525212)
(2.02572201 -0.559447562 -0.00277565509)
(2.20796228 -0.517473032 -0.00262486211)
(4.39446047 -7.18206187e-05 0.341530527)
(3.85601526 -0.000249558245 0.527413418)
(3.26956132 -0.000677862232 0.417871247)
(2.69008303 -0.00154057018 0.263654844)
(2.29573249 -0.00297387311 0.14765102)
(2.05685281 -0.00509346131 0.0754440521)
(1.90373089 -0.00798817211 0.0363718587)
(1.80296008 -0.0117413953 0.0175500213)
(1.73656015 -0.0164622724 0.00924694112)
(1.69071981 -0.0222950216 0.00591754668)
(1.65647617 -0.0294238368 0.00473301917)
(1.62897053 -0.0380843942 0.00432160146)
(1.6056002 -0.0485795708 0.00409555907)
(1.58490935 -0.0612991179 0.00385183176)
(1.5661105 -0.0767451008 0.00354287806)
(1.54885369 -0.0955636556 0.00317118928)
(1.53313155 -0.118582076 0.00274775524)
(1.51929905 -0.146847796 0.00227627229)
(1.50819402 -0.181659924 0.00174813667)
(1.50136122 -0.224571224 0.00114274032)
(1.50140046 -0.277312903 0.000431546538)
(1.5124555 -0.341545764 -0.000411184317)
(1.54082471 -0.418251139 -0.00138523793)
(1.59558944 -0.506568925 -0.00243790442)
(1.68903478 -0.601506356 -0.0034844603)
(1.8356304 -0.689936672 -0.0044127989)
(2.04843859 -0.746257438 -0.00497935866)
(2.33335824 -0.717813267 -0.00671369761)
(4.39442464 -0.000232015122 0.341552645)
(3.85577469 -0.000653092705 0.527467582)
(3.26892432 -0.00122942395 0.417936049)
(2.68891308 -0.0021381709 0.263713846)
(2.29395563 -0.00350939405 0.147700725)
(2.05439102 -0.00545405083 0.0754892498)
(1.90049007 -0.00805853489 0.036416759)
(1.79883351 -0.0114063329 0.0175952355)
(1.73141596 -0.0156069161 0.00929177554)
(1.68438974 -0.0208051585 0.00596137498)
(1.64874551 -0.0271879622 0.00477522119)
(1.61956274 -0.0349979367 0.00436147754)
(1.59415562 -0.044552658 0.00413212793)
(1.57095776 -0.056270523 0.00388322022)
(1.54903614 -0.070706596 0.00356529522)
(1.52785147 -0.0886017618 0.00317731555)
(1.50715515 -0.11094885 0.00272409479)
(1.48700591 -0.139079754 0.00219879298)
(1.46790255 -0.174775762 0.00157532461)
(1.45105898 -0.220395752 0.000805253617)
(1.43888886 -0.278994867 -0.000180795542)
(1.43581049 -0.354339763 -0.00145706733)
(1.44951755 -0.450686487 -0.00306246861)
(1.49286244 -0.571815577 -0.00495301199)
(1.58646764 -0.718255579 -0.00705662564)
(1.75927532 -0.880505654 -0.00908445811)
(2.05350088 -1.02446028 -0.0115093695)