/*--------------------------------*- C++ -*----------------------------------*\
| =========                 |                                                 |
| \\      /  F ield         | foam-extend: Open Source CFD                    |
|  \\    /   O peration     | Version:     4.1                                |
|   \\  /    A nd           | Web:         http://www.foam-extend.org         |
|    \\/     M anipulation  |                                                 |
\*---------------------------------------------------------------------------*/
FoamFile
{
    version     2.0;
    format      ascii;
    class       volVectorField;
    location    "0.35";
    object      U_0;
}
// * * * * * * * * * * * * * * * * * * * * * * * * * * * * * * * * * * * * * //

dimensions      [0 1 -1 0 0 0 0];

internalField   nonuniform List<vector> 
35840
(
(3.94086034 0.268528624 0.261844343)
(3.20795369 0.371831738 0.357379731)
(2.43829649 0.266506985 0.24986066)
(1.72034834 0.156944884 0.141978633)
(1.29366991 0.0888166505 0.0772234493)
(1.05218421 0.0517243481 0.0439395433)
(0.893427459 0.031204345 0.0270976101)
(0.785217958 0.0189924137 0.0180823528)
(0.711695982 0.0115203381 0.0131452093)
(0.660047243 0.00694450182 0.0104228027)
(0.622066048 0.00408928761 0.00881465797)
(0.593087054 0.0022562937 0.00773607408)
(0.570326062 0.00105528195 0.0069157198)
(0.552026701 0.000258672055 0.00623174257)
(0.537055183 -0.000272819808 0.00562943133)
(0.524655499 -0.000625440753 0.00508520504)
(0.514297842 -0.000853088645 0.00458899013)
(0.505588792 -0.000990918944 0.00413533635)
(0.498229823 -0.00106227025 0.00372043542)
(0.491979935 -0.00108210977 0.00334110365)
(0.486639154 -0.00106059835 0.00299431753)
(0.482037678 -0.00100524908 0.00267735913)
(0.478028566 -0.000921997902 0.00238796504)
(0.474483148 -0.000815797467 0.00212432304)
(0.471287958 -0.000691093897 0.00188504857)
(0.468342862 -0.000552152975 0.0016691388)
(0.465560008 -0.00040322782 0.00147590207)
(0.462863354 -0.000248591716 0.00130487135)
(4.52124959 0.409953469 0.331399973)
(4.20224599 0.638137322 0.509000295)
(3.63676284 0.54349672 0.407274785)
(2.94289341 0.391290867 0.26150553)
(2.41564976 0.26750349 0.15221897)
(2.06112709 0.181545175 0.0859709696)
(1.80859868 0.124037612 0.0502561662)
(1.6243372 0.0850721734 0.0317475878)
(1.49027349 0.0584681503 0.0220764647)
(1.39084574 0.040329411 0.0169202418)
(1.31481577 0.027881117 0.0140033331)
(1.25515795 0.0192124649 0.0121465339)
(1.20737419 0.0130766427 0.0108011858)
(1.16843466 0.00866346646 0.0097274007)
(1.1362616 0.00544255132 0.0088164121)
(1.10940224 0.00306699361 0.00801605797)
(1.08680551 0.00130918832 0.00729963218)
(1.06768466 1.72880239e-05 0.0066516032)
(1.05142285 -0.00091177663 0.00606101676)
(1.03752548 -0.00154911975 0.00551890158)
(1.02558719 -0.00194546275 0.00501776459)
(1.01526666 -0.00213834941 0.00455169493)
(1.00626929 -0.00215708127 0.00411626722)
(0.998337669 -0.00202604042 0.00370826429)
(0.99124488 -0.00176687934 0.00332551216)
(0.984790064 -0.00139999398 0.00296675506)
(0.978795775 -0.00094542576 0.00263151762)
(0.9731066 -0.000423290052 0.0023199362)
(4.44213358 0.221361623 0.337952051)
(4.08278429 0.436516584 0.518819368)
(3.65713754 0.463116522 0.418089634)
(3.13712391 0.408854465 0.27588948)
(2.71978577 0.331887786 0.166458537)
(2.4218252 0.257596166 0.0961057055)
(2.19810938 0.195664626 0.0564762909)
(2.02636847 0.147039484 0.0358956183)
(1.89487494 0.109781229 0.0253573814)
(1.79247161 0.0816336712 0.0198202429)
(1.71060726 0.0605228683 0.0166894129)
(1.64385643 0.0446972996 0.0146505768)
(1.58867346 0.0327802032 0.0131057225)
(1.54255361 0.0237357628 0.0118160229)
(1.5036774 0.0168080545 0.0106893362)
(1.47069785 0.011459345 0.00968736294)
(1.4425865 0.00731321551 0.00879111246)
(1.4185338 0.00410766417 0.00798743464)
(1.39788542 0.00165953645 0.00726418651)
(1.3801021 -0.000161399799 0.00660952043)
(1.3647259 -0.00144971886 0.00601232594)
(1.35136502 -0.0022765752 0.00546281366)
(1.33967762 -0.00269801005 0.00495294923)
(1.32936129 -0.00276114883 0.00447649784)
(1.32014636 -0.00250851612 0.00402889784)
(1.31179148 -0.00198091837 0.00360709438)
(1.30408095 -0.00121927197 0.00320933729)
(1.29682341 -0.000265586423 0.0028349412)
(4.41370728 0.123370074 0.337929303)
(3.97527174 0.285995967 0.516843667)
(3.52614236 0.346942381 0.410945345)
(3.04826535 0.341762625 0.267056539)
(2.69650323 0.304727062 0.158688812)
(2.46049504 0.256418391 0.089312636)
(2.2881061 0.20852975 0.0503499253)
(2.15601784 0.166243908 0.030649643)
(2.05357955 0.13084012 0.0211781601)
(1.97172288 0.10199736 0.0166849015)
(1.90396022 0.0788668833 0.0144680149)
(1.84659571 0.060472337 0.0131700981)
(1.79746753 0.0458865606 0.0121817333)
(1.75512052 0.0343095014 0.0112831153)
(1.7184916 0.0250923989 0.0104175238)
(1.68675969 0.0177328409 0.00958272446)
(1.65925317 0.0118543643 0.00878967958)
(1.63540025 0.00718084078 0.00804784464)
(1.6147039 0.00351179647 0.00736101728)
(1.59672689 0.00070167603 0.00672786774)
(1.58108021 -0.0013568876 0.00614378478)
(1.56741498 -0.00274588835 0.00560298086)
(1.55541575 -0.00353098333 0.00509945205)
(1.54479534 -0.00376871663 0.00462773975)
(1.53529139 -0.00351198382 0.00418337672)
(1.52666422 -0.00281381675 0.0037630562)
(1.51869587 -0.00172982256 0.003364631)
(1.51119007 -0.000319482166 0.00298700573)
(4.40562821 0.0838878168 0.338530403)
(3.92709322 0.205874096 0.518667692)
(3.43458153 0.264639216 0.409526221)
(2.9427362 0.274643976 0.261034289)
(2.60542736 0.25767191 0.150311799)
(2.39687618 0.227968831 0.0806004774)
(2.25545981 0.194209907 0.042147904)
(2.15329274 0.161475465 0.0232705005)
(2.07740065 0.132046808 0.0147417339)
(2.01793676 0.106574688 0.0111888171)
(1.96849691 0.0849882084 0.0098473795)
(1.92583007 0.0669268146 0.00933306749)
(1.88835211 0.0519283607 0.0090206073)
(1.85519755 0.0395239803 0.00868584246)
(1.82583466 0.0292879639 0.00827972634)
(1.79988612 0.0208599572 0.0078142519)
(1.77703333 0.0139495785 0.0073163096)
(1.75697645 0.00833102413 0.00681054207)
(1.73942386 0.00383296638 0.00631404759)
(1.72409087 0.000327197295 0.0058363181)
(1.71070225 -0.00228300118 0.00538129395)
(1.69899259 -0.00407258782 0.00494976465)
(1.6887072 -0.00510293645 0.00454050119)
(1.67960289 -0.00542899896 0.00415138837)
(1.67144867 -0.00510501777 0.00378023374)
(1.66402691 -0.00418876212 0.00342521568)
(1.65713489 -0.00274438837 0.00308510259)
(1.65058678 -0.000843949827 0.00275932667)
(4.40178176 0.0613580843 0.339164794)
(3.90241748 0.153224868 0.520513762)
(3.38074289 0.204411635 0.410098918)
(2.86921557 0.221082169 0.258748117)
(2.52750662 0.21574935 0.145979665)
(2.32477252 0.19808367 0.0755296882)
(2.19489135 0.174636175 0.0370221113)
(2.10723461 0.14978924 0.0183399555)
(2.04672508 0.125980725 0.0101166585)
(2.00216112 0.104278224 0.00691329475)
(1.96645353 0.0850264532 0.00592981582)
(1.93606128 0.068228639 0.00577171935)
(1.90933703 0.0537284714 0.00580766875)
(1.88549067 0.0413042591 0.00580467554)
(1.86414059 0.0307217607 0.005706197)
(1.84508759 0.0217628028 0.0055202716)
(1.82819033 0.0142388613 0.00527285839)
(1.81331006 0.0079954085 0.00498977773)
(1.80029359 0.00291070571 0.00469063004)
(1.78897021 -0.00110881078 0.00438796525)
(1.77915764 -0.00413507314 0.00408915347)
(1.770662 -0.0062246019 0.00379804465)
(1.76328396 -0.00742544947 0.00351600456)
(1.75682176 -0.00778369699 0.0032430515)
(1.75107455 -0.00734900362 0.0029786512)
(1.74584606 -0.0061790882 0.002722184)
(1.74094839 -0.00434293179 0.00247321829)
(1.73620612 -0.00192247151 0.00223165734)
(4.39956831 0.0466868504 0.339653654)
(3.88830396 0.117720079 0.521953934)
(3.34831775 0.161235831 0.411269502)
(2.82103374 0.180136257 0.258566138)
(2.47121605 0.18140486 0.144563565)
(2.266675 0.171517045 0.073500992)
(2.13923624 0.155415301 0.0347876976)
(2.05691607 0.136668014 0.0160496564)
(2.00343142 0.117517722 0.00782557956)
(1.9666486 0.0991717707 0.00464315522)
(1.93889482 0.0822048825 0.00368835312)
(1.91627484 0.0668449486 0.00357039795)
(1.89692632 0.0531346491 0.00366500959)
(1.87994442 0.0410226496 0.0037400488)
(1.86490598 0.0304162851 0.00373518286)
(1.8516188 0.0212116963 0.00365349128)
(1.83997709 0.0133104924 0.0035163325)
(1.82989172 0.00662812882 0.00334578863)
(1.82126305 0.0010969772 0.0031587334)
(1.81397243 -0.00333483233 0.00296610734)
(1.8078825 -0.00670630287 0.00277455151)
(1.80283716 -0.00904772852 0.00258748599)
(1.79866628 -0.0103868328 0.00240616518)
(1.79518904 -0.0107546394 0.00223067391)
(1.79221812 -0.0101910098 0.00206056666)
(1.78956455 -0.0087495064 0.00189524308)
(1.78704313 -0.00650105359 0.00173417196)
(1.78447839 -0.00353589756 0.0015770207)
(4.39821743 0.0366454457 0.340043252)
(3.8796167 0.0929732064 0.523110057)
(3.32762459 0.12954804 0.412496257)
(2.78861337 0.148159499 0.259133631)
(2.43114171 0.152908056 0.144408828)
(2.22289832 0.148070588 0.0729513292)
(2.09464186 0.137254288 0.0341037601)
(2.01362499 0.123235123 0.0153196333)
(1.96287192 0.107920941 0.00705940594)
(1.92967825 0.0924921467 0.00383010639)
(1.90599113 0.0776272089 0.00281391083)
(1.88766969 0.0636904771 0.00262811665)
(1.87268424 0.0508593065 0.0026606489)
(1.86001662 0.0392046308 0.00268752821)
(1.84917225 0.0287401965 0.00265140981)
(1.83991924 0.0194523957 0.00255524957)
(1.83213493 0.0113183144 0.00241876203)
(1.82572859 0.00431622275 0.00226173821)
(1.82060749 -0.00156932488 0.00209865145)
(1.81666577 -0.00634647333 0.00193857504)
(1.81377622 -0.0100168114 0.00178657497)
(1.81179218 -0.0125792138 0.00164467013)
(1.81054844 -0.0140352617 0.0015130639)
(1.80986402 -0.0143951252 0.00139103084)
(1.80954624 -0.0136836804 0.00127743385)
(1.80939622 -0.0119461943 0.00117102836)
(1.80921561 -0.00925280011 0.00107061112)
(1.80881452 -0.00570098968 0.000975101218)
(4.39732371 0.0293698283 0.34034997)
(3.87389528 0.0747898948 0.524006182)
(3.31374327 0.105397106 0.413536853)
(2.76611329 0.122594178 0.259833687)
(2.40222136 0.128955767 0.144689331)
(2.19007016 0.127293871 0.0729982081)
(2.05990463 0.120183253 0.034084489)
(1.97853279 0.109732217 0.0152902942)
(1.92854363 0.0974961601 0.00701724298)
(1.89685355 0.0845377844 0.00375677968)
(1.87514528 0.0715462974 0.00268848224)
(1.85910466 0.0589505985 0.00243490649)
(1.84658482 0.0470100193 0.00239358464)
(1.8364869 0.0358791172 0.00234889122)
(1.82826167 0.02565002 0.00224852154)
(1.82164209 0.0163797148 0.00209786218)
(1.81648466 0.00810786806 0.00191743828)
(1.8126876 0.000868107848 0.00172684499)
(1.81015402 -0.00530605102 0.00153996927)
(1.80877517 -0.0103784039 0.00136525692)
(1.80842229 -0.0143104743 0.00120688132)
(1.80894431 -0.0170653477 0.0010660702)
(1.81016737 -0.0186129607 0.000942384543)
(1.81189656 -0.018936761 0.000834532728)
(1.81391973 -0.0180411665 0.00074083351)
(1.81601359 -0.0159587917 0.000659505714)
(1.81795209 -0.0127562945 0.000588742858)
(1.81951657 -0.00853781811 0.00052672888)
(4.39669919 0.0238541298 0.34058739)
(3.86993701 0.0608902563 0.524692618)
(3.30405845 0.0864757289 0.414371442)
(2.75004569 0.101817213 0.260485561)
(2.38094228 0.108645475 0.145089188)
(2.16517719 0.108835782 0.0732526399)
(2.03279743 0.104212795 0.0343003446)
(1.95037247 0.0963559188 0.015507126)
(1.90021705 0.0864999473 0.00723411356)
(1.86898855 0.0755541073 0.00396040823)
(1.8481761 0.0641616527 0.00286253872)
(1.83333205 0.0527633412 0.00256519066)
(1.82221824 0.0416578406 0.00247146769)
(1.81367397 0.0310504378 0.00237136628)
(1.80710915 0.0210871761 0.00221651763)
(1.80223103 0.0118781974 0.00201466217)
(1.79888138 0.00351404796 0.00178761198)
(1.7969508 -0.00392351633 0.00155556379)
(1.79633909 -0.0103549528 0.00133284095)
(1.79693478 -0.0156996414 0.00112798428)
(1.79860535 -0.0198766726 0.000945017844)
(1.80119172 -0.0228086218 0.000785083986)
(1.80450592 -0.0244277182 0.000647727891)
(1.8083317 -0.0246840751 0.000531662078)
(1.81242797 -0.0235552219 0.000435109926)
(1.81653546 -0.0210557986 0.000356037117)
(1.82038688 -0.0172458553 0.000292358896)
(1.82372048 -0.0122361553 0.000242028187)
(4.39624646 0.0195284754 0.340770507)
(3.86709216 0.049929491 0.525220213)
(3.29706708 0.0712864558 0.415030639)
(2.73825268 0.0846547947 0.261040759)
(2.36495826 0.0912699727 0.145484271)
(2.14601527 0.0924128594 0.0735514142)
(2.01143082 0.0893771503 0.0345718591)
(1.9276655 0.0833355011 0.015779307)
(1.87687172 0.0752511316 0.00750801191)
(1.84553656 0.0658773374 0.00422809564)
(1.82501145 0.0557842169 0.00311355476)
(1.81074633 0.045391394 0.00278986771)
(1.80042952 0.0350062768 0.00266314088)
(1.79284969 0.0248591512 0.0025266144)
(1.78738359 0.0151296179 0.00233428619)
(1.78371873 0.00596577914 0.00209534861)
(1.7816868 -0.0025016823 0.00183243588)
(1.78117526 -0.0101493928 0.00156640243)
(1.78208389 -0.0168545084 0.00131207642)
(1.78430207 -0.0224918749 0.00107813047)
(1.78769517 -0.0269349967 0.000868787747)
(1.79209633 -0.030060272 0.00068549679)
(1.79730177 -0.0317546523 0.00052803618)
(1.80306921 -0.0319262744 0.000395282805)
(1.80912044 -0.0305171819 0.000285701176)
(1.81514854 -0.0275168233 0.00019754647)
(1.82083064 -0.0229743417 0.000128940161)
(1.82584562 -0.0170071501 7.78558356e-05)
(4.39590767 0.0160440872 0.340912145)
(3.86497867 0.0410637038 0.525628583)
(3.29186199 0.0588352734 0.415549748)
(2.72936679 0.070272521 0.261496953)
(2.35269448 0.0762943258 0.14583385)
(2.13101336 0.0777961836 0.0738349804)
(1.99435984 0.075699305 0.0348346635)
(1.90916109 0.0708699612 0.0160401675)
(1.85748248 0.0640505143 0.00776820635)
(1.82570543 0.0558514326 0.00448295516)
(1.80508895 0.0467606007 0.00335673713)
(1.791009 0.0371581877 0.00301546223)
(1.78109771 0.0273401004 0.00286696852)
(1.7741039 0.0175427643 0.00270632815)
(1.76937848 0.00796326893 0.00248880556)
(1.76659446 -0.00122522891 0.00222426093)
(1.76557806 -0.00986128813 0.00193581672)
(1.76621806 -0.0177856034 0.00164477713)
(1.76841916 -0.024834596 0.00136604423)
(1.77207564 -0.0308377828 0.00110839109)
(1.7770544 -0.0356187661 0.000876215522)
(1.78318301 -0.0390003838 0.000671205436)
(1.79024138 -0.0408142691 0.00049346048)
(1.7979573 -0.0409147125 0.000342289628)
(1.80600701 -0.0391960798 0.000216630275)
(1.81402266 -0.0356120754 0.00011521779)
(1.8216077 -0.0301941649 3.66066235e-05)
(1.82836042 -0.0230655037 -2.09159452e-05)
(4.3956468 0.0131782102 0.341022556)
(3.86336119 0.0337485447 0.525948134)
(3.28787479 0.0484573169 0.415961036)
(2.72249827 0.0580788694 0.261868182)
(2.34307659 0.0633103269 0.146131127)
(2.11904735 0.0647883526 0.0740856907)
(1.9805005 0.0631723461 0.0350691971)
(1.89386961 0.0591002335 0.0162709013)
(1.84118055 0.0531384288 0.00799596968)
(1.80875394 0.0457728213 0.0047048174)
(1.787791 0.0374096965 0.00356876373)
(1.77361827 0.0283809396 0.00321406684)
(1.76382865 0.0189582648 0.0030496785)
(1.75714297 0.00937083197 0.00287173134)
(1.7528948 -0.00017941641 0.00263608637)
(1.75074941 -0.00950504081 0.00235299056)
(1.75053421 -0.0184219353 0.00204589099)
(1.75214574 -0.0267401964 0.00173605936)
(1.75549998 -0.0342577776 0.00143824785)
(1.76050276 -0.0407573063 0.00116121953)
(1.76702873 -0.0460069559 0.0009094736)
(1.77490461 -0.0497663682 0.000684893314)
(1.7838958 -0.0517984193 0.000487901767)
(1.79369718 -0.0518872151 0.000318266363)
(1.80393031 -0.0498618352 0.000175486514)
(1.81414987 -0.0456239861 5.89572641e-05)
(1.82386178 -0.0391759838 -3.20631846e-05)
(1.83255437 -0.0306436505 -9.86525066e-05)
(4.39544057 0.0107837692 0.341109725)
(3.86208882 0.0276218086 0.526201871)
(3.2847367 0.0396972256 0.416290783)
(2.71705358 0.047648143 0.262171161)
(2.3353611 0.0520037966 0.146380753)
(2.10930882 0.0532194081 0.0743015525)
(1.96904348 0.051767957 0.0352725065)
(1.88102337 0.0481172065 0.0164698134)
(1.8272632 0.0426944631 0.00819077478)
(1.79405247 0.035879448 0.00489346988)
(1.77255963 0.0280019394 0.00374865923)
(1.75808154 0.0193422648 0.0033829141)
(1.74818702 0.0101402032 0.00320594309)
(1.7415805 0.000607840367 0.003014462)
(1.73758758 -0.00905822262 0.00276473907)
(1.73587477 -0.018665421 0.00246736712)
(1.73627923 -0.028014608 0.00214570613)
(1.73871389 -0.0368907822 0.00182068622)
(1.74311569 -0.0450556619 0.00150686226)
(1.74941247 -0.0522432003 0.00121289536)
(1.757497 -0.0581595368 0.000943288352)
(1.76720411 -0.0624890335 0.000700049156)
(1.77829025 -0.0649080479 0.000483870437)
(1.790417 -0.0651077586 0.000294965614)
(1.80314208 -0.0628262506 0.000133503563)
(1.81592254 -0.0578881811 -2.32816517e-07)
(1.82813507 -0.0502474898 -0.000105942195)
(1.83911674 -0.0400252125 -0.000183655726)
(4.39527347 0.00876075299 0.341179744)
(3.86106149 0.0224356598 0.526406953)
(3.28220146 0.0322366682 0.416559312)
(2.71262842 0.0386713151 0.262420932)
(2.32902692 0.042134223 0.146590575)
(2.10121303 0.0429475177 0.0744862426)
(1.95938464 0.0414485773 0.0354475555)
(1.87003118 0.0379773073 0.016640689)
(1.81517184 0.0328508377 0.00835733916)
(1.78108365 0.0263590799 0.00505414801)
(1.75891947 0.0187618205 0.0039015962)
(1.74396125 0.01028738 0.00352651239)
(1.73376603 0.00113853781 0.00333908502)
(1.72703218 -0.00849742259 0.00313652172)
(1.72308732 -0.018437799 0.00287557213)
(1.72160892 -0.0284936237 0.00256677133)
(1.72245374 -0.0384588598 0.00223301709)
(1.72556264 -0.048099707 0.00189489127)
(1.73090699 -0.0571448692 0.00156669737)
(1.73845179 -0.06527843 0.00125690186)
(1.74812405 -0.0721373455 0.000969871079)
(1.7597822 -0.0773161266 0.000707598581)
(1.77318574 -0.0803816548 0.000470965289)
(1.78796758 -0.0809009923 0.00026062227)
(1.80361424 -0.0784839203 7.75196046e-05)
(1.81946158 -0.0728394154 -7.68801511e-05)
(1.83471491 -0.0638408385 -0.000200731537)
(1.84850136 -0.0515885461 -0.000292360636)
(4.39513486 0.00703948252 0.341237193)
(3.86021119 0.0180166405 0.526576083)
(3.2801009 0.025849322 0.416781986)
(2.70894254 0.030922346 0.262629821)
(2.32370472 0.03351832 0.146768461)
(2.09433472 0.0338575383 0.0746449089)
(1.95107297 0.0321761207 0.0355988572)
(1.86044006 0.0287164503 0.0167884052)
(1.80446718 0.023707546 0.00850104977)
(1.76942975 0.0173630463 0.0051925483)
(1.74647605 0.00987905936 0.00403324728)
(1.73088321 0.00143232175 0.00365013026)
(1.72020559 -0.00781532539 0.00345390073)
(1.71314466 -0.0177078084 0.00324246457)
(1.70903912 -0.028084592 0.00297261387)
(1.70758657 -0.0387698441 0.0026543868)
(1.70867465 -0.0495602375 0.00231024177)
(1.7122862 -0.0602114801 0.00196042614)
(1.71844425 -0.0704248311 0.00161887076)
(1.72717181 -0.0798353175 0.00129366239)
(1.73845395 -0.0880042906 0.000988863565)
(1.75219753 -0.0944200669 0.000706278512)
(1.76818725 -0.0985114183 0.00044681271)
(1.78604117 -0.0996792822 0.000211478605)
(1.80517258 -0.0973513699 2.10187364e-06)
(1.82477032 -0.0910614141 -0.000178294035)
(1.84381296 -0.0805482594 -0.000325556966)
(1.86113316 -0.0658597535 -0.000435249247)
(4.39501736 0.00557039771 0.341285473)
(3.85949084 0.014240951 0.52671861)
(3.27831826 0.020371772 0.416970259)
(2.70579926 0.0242345642 0.262807446)
(2.31913081 0.0260168601 0.146921173)
(2.088364 0.0258583279 0.0747824881)
(1.94377267 0.0239173399 0.0357308056)
(1.85190544 0.0203604022 0.0169174373)
(1.7948078 0.0153449653 0.00862656602)
(1.75875903 0.00901915017 0.00531337363)
(1.73490871 0.00152054454 0.00414810096)
(1.7185351 -0.00702547092 0.00375808045)
(1.70719657 -0.0165011735 0.00355489385)
(1.69960443 -0.0267880208 0.00333664477)
(1.69511512 -0.0377568985 0.00305967529)
(1.69345511 -0.0492563525 0.00273359007)
(1.69455452 -0.06109789 0.00238051116)
(1.69845387 -0.0730386853 0.00202020174)
(1.70524906 -0.0847624533 0.00166604051)
(1.71504844 -0.0958603108 0.00132555296)
(1.72792873 -0.105814759 0.0010022668)
(1.74388312 -0.113991764 0.000697529642)
(1.76275937 -0.119648164 0.000411990789)
(1.78419043 -0.121963654 0.00014681554)
(1.8075263 -0.120107286 -9.52809049e-05)
(1.83178453 -0.113345947 -0.000309253509)
(1.8556455 -0.101193546 -0.000487523586)
(1.87752438 -0.0835839148 -0.000621267848)
(4.3949158 0.00431755646 0.341327081)
(3.85886755 0.0110185774 0.526841352)
(3.27677182 0.0156842024 0.417132552)
(2.7030598 0.0184839477 0.262961086)
(2.31511674 0.0195241826 0.147054106)
(2.08307597 0.0188792251 0.0749031344)
(1.93723603 0.0166461904 0.035847104)
(1.84416887 0.0129312652 0.0170314053)
(1.78593349 0.00783272293 0.00873744104)
(1.7488141 0.0014412964 0.00541994051)
(1.72396351 -0.0061601996 0.00424938356)
(1.7066644 -0.0148973495 0.00385401727)
(1.69448252 -0.0246998176 0.00364569668)
(1.68614188 -0.0354939373 0.00342218492)
(1.68102115 -0.0471927891 0.00313952153)
(1.67888257 -0.0596828616 0.00280703584)
(1.67970951 -0.072806577 0.00244636637)
(1.68361661 -0.0863400576 0.00207665681)
(1.69079685 -0.0999664167 0.00171057269)
(1.70147832 -0.113245965 0.00135486148)
(1.71587489 -0.125586488 0.00101222243)
(1.73412189 -0.136219742 0.000683170697)
(1.75619162 -0.144194258 0.000367660803)
(1.78178859 -0.148399184 6.66011741e-05)
(1.81023347 -0.147637822 -0.000216561944)
(1.84035913 -0.140770005 -0.000474311338)
(1.87045916 -0.12693291 -0.000694215526)
(1.89835376 -0.105828583 -0.000860287348)
(4.39482653 0.00325433024 0.341363813)
(3.85831835 0.00828270099 0.526949211)
(3.27540449 0.0116971386 0.417274964)
(2.70062676 0.0135769333 0.263096105)
(2.31152913 0.0139596084 0.14717136)
(2.07830984 0.0128659472 0.0750100833)
(1.93128412 0.0103438678 0.0359506013)
(1.83704202 0.00645071417 0.0171329307)
(1.77765261 0.00123468192 0.00883596603)
(1.73940308 -0.00526482426 0.00551447218)
(1.71344935 -0.0130162527 0.00433995357)
(1.69507833 -0.0219959421 0.00394083198)
(1.681862 -0.032185175 0.00372862857)
(1.67253679 -0.0435634445 0.00350103649)
(1.66650468 -0.056098223 0.00321397749)
(1.66356721 -0.0697306403 0.00287639338)
(1.66376892 -0.0843552218 0.00250933469)
(1.66731364 -0.099792198 0.00213120155)
(1.67451743 -0.115751539 0.00175378946)
(1.68576876 -0.131788845 0.0013828356)
(1.70147767 -0.147255447 0.00101986666)
(1.72200082 -0.161249156 0.000664095947)
(1.74753095 -0.172578283 0.000314191071)
(1.7779449 -0.179760556 -2.98191111e-05)
(1.81261411 -0.181088702 -0.000364111886)
(1.85020461 -0.174803344 -0.000678391376)
(1.88852355 -0.159409482 -0.000953397907)
(1.92454177 -0.134150543 -0.00116126638)
(4.39474706 0.00236043389 0.341396926)
(3.85782745 0.00598233801 0.527045628)
(3.2741771 0.0083419829 0.417401797)
(2.69843319 0.00944121008 0.263216329)
(2.30827605 0.00926021864 0.147275905)
(2.07395454 0.00777617644 0.0751056742)
(1.92579338 0.00499725821 0.036043221)
(1.83039468 0.00094024705 0.0172234768)
(1.76983262 -0.00438978518 0.00892354918)
(1.73039464 -0.0109989375 0.00559922113)
(1.70323659 -0.018903572 0.00442215003)
(1.68364509 -0.0281314465 0.00402021041)
(1.66919388 -0.0387199085 0.0038050013)
(1.6586275 -0.0507100126 0.00357433853)
(1.65136752 -0.0641372522 0.00328394349)
(1.64725292 -0.0790172662 0.00294228876)
(1.64639178 -0.0953237762 0.00256974956)
(1.64908773 -0.112955956 0.00218386955)
(1.65580392 -0.131692469 0.00179540272)
(1.66713341 -0.151129944 0.00140882073)
(1.68375479 -0.170605782 0.00102412843)
(1.70635326 -0.189109658 0.000638743207)
(1.73548597 -0.205197 0.000249381706)
(1.77137246 -0.2169328 -0.000145577122)
(1.81359921 -0.221914734 -0.000542503389)
(1.86075676 -0.217452661 -0.000928253662)
(1.91008969 -0.200993806 -0.00127222929)
(1.95735201 -0.170885521 -0.00152565129)
(4.3946757 0.00161978637 0.341427256)
(3.8573844 0.00407701213 0.527132916)
(3.27306393 0.00556399383 0.417515967)
(2.69643528 0.00601850142 0.263324358)
(2.30529772 0.00537465044 0.147369748)
(2.06993878 0.00357517129 0.0751913532)
(1.92068546 0.000595657917 0.0361257514)
(1.82414565 -0.0035813349 0.0173038264)
(1.76239471 -0.008986576 0.00900202101)
(1.72171536 -0.0156660386 0.00567615228)
(1.69325651 -0.0236814812 0.00449720871)
(1.67229728 -0.0331123073 0.00409303492)
(1.65640526 -0.0440551941 0.00387550442)
(1.64432391 -0.0566206663 0.00364249172)
(1.63548421 -0.0709263369 0.00334944144)
(1.62975289 -0.0870845922 0.00300427773)
(1.62729498 -0.105181054 0.00262659377)
(1.62851487 -0.125239334 0.00223291913)
(1.63403836 -0.147166623 0.00183272941)
(1.64470446 -0.170673954 0.00142893906)
(1.66154142 -0.195165616 0.00101972132)
(1.68569969 -0.219595882 0.000600368615)
(1.71830657 -0.242301652 0.00016530117)
(1.76019929 -0.260840795 -0.000289193889)
(1.81148788 -0.271902587 -0.000760522903)
(1.87094633 -0.271426097 -0.00123327883)
(1.93526956 -0.255099004 -0.00165886796)
(1.99853224 -0.219549862 -0.00195477655)
(4.39461141 0.00101886698 0.341455318)
(3.85698287 0.00253274197 0.527212532)
(3.27204954 0.0033169267 0.417619307)
(2.6946072 0.00325877671 0.263421812)
(2.30256004 0.00225787382 0.147454017)
(2.06622323 0.000230680155 0.0752674313)
(1.915919 -0.00287422418 0.0361985328)
(1.81825745 -0.00710104367 0.0173755396)
(1.75531015 -0.0125092512 0.00907311849)
(1.71334698 -0.0191801025 0.00574620173)
(1.68350169 -0.0272173607 0.00456574081)
(1.66103669 -0.0367502007 0.00415973354)
(1.64350163 -0.0479358918 0.00394027559)
(1.62962402 -0.0609603128 0.00370522634)
(1.61882651 -0.0760357793 0.00340966797)
(1.61098341 -0.0933937314 0.00306084005)
(1.60629644 -0.113267818 0.00267733173)
(1.60525487 -0.135861151 0.00227431831)
(1.60864472 -0.161289033 0.00185956353)
(1.6175764 -0.189485284 0.00143396607)
(1.63350405 -0.220057586 0.000993482644)
(1.65820227 -0.252077069 0.000531321719)
(1.69364639 -0.283794564 4.06589212e-05)
(1.74171408 -0.312298229 -0.000481673366)
(1.80359136 -0.333182657 -0.00102900978)
(1.87882827 -0.340431372 -0.00158046377)
(1.96384281 -0.326793946 -0.00206201468)
(2.05059234 -0.285576708 -0.00237677118)
(4.39455374 0.000545256663 0.341481469)
(3.85661992 0.00131882434 0.52728535)
(3.27112669 0.00155890157 0.417712805)
(2.69293748 0.0011157589 0.263509444)
(2.30004904 -0.000134159124 0.147528742)
(2.0627937 -0.00229295615 0.0753340375)
(1.91148507 -0.00543227709 0.0362630127)
(1.81273225 -0.00961520487 0.017440224)
(1.74859541 -0.014924527 0.00913755459)
(1.70532351 -0.0214711028 0.00580979836)
(1.67402666 -0.0293948096 0.0046280112)
(1.64993919 -0.0388700397 0.00422031821)
(1.6305774 -0.050112428 0.00399897584)
(1.61463264 -0.0633847642 0.00376173203)
(1.60149296 -0.0790019206 0.0034631372)
(1.5910075 -0.0973325318 0.00310945447)
(1.58337587 -0.118792736 0.0027177945)
(1.57913086 -0.143824601 0.00230126594)
(1.57918334 -0.172847472 0.00186494109)
(1.5849032 -0.206163843 0.00140651567)
(1.59821394 -0.243792674 0.00091862558)
(1.62166556 -0.285193842 0.000392172234)
(1.65841584 -0.328842307 -0.000178887518)
(1.71198896 -0.371620253 -0.000788939463)
(1.78562143 -0.408082693 -0.0014063355)
(1.88089994 -0.429690479 -0.00197096359)
(1.99499277 -0.424521511 -0.0023149911)
(2.11785389 -0.379254737 -0.00241210757)
(4.39450309 0.000187012094 0.341506359)
(3.856296 0.000405833238 0.527352219)
(3.27029504 0.000248744482 0.417796819)
(2.69142526 -0.000458028363 0.263587055)
(2.29776566 -0.00184952655 0.14759408)
(2.05965775 -0.00403829978 0.0753925425)
(1.90740336 -0.00710821154 0.0363207418)
(1.80760563 -0.0111354111 0.0174984455)
(1.74230666 -0.0162198639 0.00919560011)
(1.69772792 -0.0224939551 0.00586705494)
(1.66494693 -0.0301252778 0.00468393983)
(1.63915732 -0.0393252395 0.00427446593)
(1.61782448 -0.0503603174 0.0040509594)
(1.599579 -0.0635646291 0.0038108789)
(1.58374025 -0.0793544064 0.00350793107)
(1.57008597 -0.0982430255 0.00314686483)
(1.55875284 -0.120852871 0.00274240928)
(1.55024155 -0.147917136 0.00230416228)
(1.54550191 -0.180258641 0.00183234664)
(1.54608299 -0.218722142 0.00131853456)
(1.55433956 -0.264019363 0.000748759741)
(1.573672 -0.316420474 0.000109056462)
(1.60873144 -0.375191316 -0.000605503274)
(1.66544312 -0.437679378 -0.00137259804)
(1.75058371 -0.497964194 -0.00212729561)
(1.87028207 -0.544899612 -0.00275022676)
(2.02571793 -0.560401691 -0.00284663748)
(2.20839389 -0.518525338 -0.00266355764)
(4.39446025 -6.65073235e-05 0.341530554)
(3.85601401 -0.000235874882 0.527413587)
(3.26955835 -0.000657476019 0.417871518)
(2.69007764 -0.00151440822 0.263655127)
(2.29572416 -0.00294246037 0.147651298)
(2.05684108 -0.00505706741 0.0754443289)
(1.90371513 -0.0079468959 0.0363721373)
(1.80293951 -0.0116952476 0.0175502962)
(1.73653381 -0.0164111935 0.00924720134)
(1.69068651 -0.0222388876 0.00591777739)
(1.6564344 -0.0293624829 0.00473319834)
(1.62891839 -0.0380176581 0.00432169274)
(1.60553529 -0.0485073598 0.00409550068)
(1.58482859 -0.0612215137 0.00385151897)
(1.56600998 -0.0766625258 0.0035421348)
(1.54872842 -0.0954771383 0.00316972287)
(1.53297521 -0.118493675 0.00274508478)
(1.5191038 -0.146761271 0.00227161672)
(1.50795031 -0.181581799 0.00174024331)
(1.50105806 -0.224512429 0.00112963228)
(1.50102636 -0.277291239 0.000410178352)
(1.51200109 -0.341589407 -0.000445323521)
(1.54028834 -0.418403083 -0.00143839568)
(1.59498806 -0.506891685 -0.00251795342)
(1.68842314 -0.602083381 -0.00359960494)
(1.83513049 -0.690861535 -0.00456751302)
(2.04827994 -0.747586255 -0.00516284414)
(2.33389424 -0.71938402 -0.00685895956)
(4.39442442 -0.000226376952 0.341552641)
(3.85577352 -0.000638471934 0.5274677)
(3.26892169 -0.00120756897 0.417936276)
(2.68890835 -0.00211007117 0.263714095)
(2.29394829 -0.00347553821 0.147700974)
(2.05438065 -0.00541461762 0.0754894995)
(1.90047611 -0.0080135174 0.0364170088)
(1.79881523 -0.0113555989 0.0175954791)
(1.73139243 -0.0155502104 0.00929200244)
(1.6843598 -0.0207420949 0.00596157045)
(1.64870769 -0.0271180272 0.00477536337)
(1.61951514 -0.0349205044 0.00436152974)
(1.59409575 -0.0444670187 0.00413202644)
(1.57088239 -0.0561759381 0.00388285476)
(1.54894098 -0.0706023988 0.00356447625)
(1.52773086 -0.0884875417 0.00317571963)
(1.50700156 -0.110824786 0.00272117286)
(1.48680934 -0.13894721 0.00219361569)
(1.46764989 -0.174638342 0.00156632035)
(1.45073325 -0.220261157 0.000789765879)
(1.43846901 -0.278878119 -0.000207244483)
(1.43527243 -0.354268681 -0.00150195208)
(1.44883874 -0.450710851 -0.00313817548)
(1.49203478 -0.572021585 -0.00508003657)
(1.58552752 -0.718785707 -0.00726822511)
(1.75836305 -0.881574288 -0.00942949449)
(2.05297097 -1.02629681 -0.0120223447)
(2.50152165 -1.02739592 -0.0131547468)