/*--------------------------------*- C++ -*----------------------------------*\
| =========                 |                                                 |
| \\      /  F ield         | foam-extend: Open Source CFD                    |
|  \\    /   O peration     | Version:     4.1                                |
|   \\  /    A nd           | Web:         http://www.foam-extend.org         |
|    \\/     M anipulation  |                                                 |
\*---------------------------------------------------------------------------*/
FoamFile
{
    version     2.0;
    format      ascii;
    class       volScalarField::DimensionedInternalField;
    location    "0.35";
    object      V0;
}
// * * * * * * * * * * * * * * * * * * * * * * * * * * * * * * * * * * * * * //

dimensions      [0 3 0 0 0 0 0];

value           nonuniform List<scalar> 
35840
(
1.0000001e-06
1.00000029e-06
1.00000049e-06
1.00000071e-06
1.00000096e-06
1.00000123e-06
1.00000155e-06
1.00000192e-06
1.00000235e-06
1.00000286e-06
1.00000343e-06
1.0000041e-06
1.00000485e-06
1.0000057e-06
1.00000665e-06
1.0000077e-06
1.00000885e-06
1.00001007e-06
1.00001137e-06
1.00001273e-06
1.00001411e-06
1.0000155e-06
1.00001685e-06
1.00001815e-06
1.00001934e-06
1.0000204e-06
1.00002129e-06
1.00002199e-06
1.0000001e-06
1.0000003e-06
1.0000005e-06
1.00000073e-06
1.00000098e-06
1.00000126e-06
1.00000159e-06
1.00000197e-06
1.00000241e-06
1.00000293e-06
1.00000353e-06
1.00000421e-06
1.000005e-06
1.00000588e-06
1.00000687e-06
1.00000797e-06
1.00000917e-06
1.00001045e-06
1.00001182e-06
1.00001325e-06
1.00001471e-06
1.00001617e-06
1.00001761e-06
1.00001898e-06
1.00002025e-06
1.00002138e-06
1.00002233e-06
1.00002307e-06
1.0000001e-06
1.00000031e-06
1.00000053e-06
1.00000077e-06
1.00000104e-06
1.00000134e-06
1.00000169e-06
1.0000021e-06
1.00000258e-06
1.00000314e-06
1.0000038e-06
1.00000455e-06
1.00000541e-06
1.0000064e-06
1.0000075e-06
1.00000872e-06
1.00001007e-06
1.00001152e-06
1.00001307e-06
1.00001469e-06
1.00001636e-06
1.00001804e-06
1.0000197e-06
1.00002129e-06
1.00002276e-06
1.00002407e-06
1.00002517e-06
1.00002604e-06
1.00000011e-06
1.00000035e-06
1.00000059e-06
1.00000085e-06
1.00000114e-06
1.00000148e-06
1.00000188e-06
1.00000234e-06
1.00000289e-06
1.00000353e-06
1.00000428e-06
1.00000516e-06
1.00000617e-06
1.00000732e-06
1.00000863e-06
1.00001009e-06
1.0000117e-06
1.00001345e-06
1.00001533e-06
1.00001731e-06
1.00001936e-06
1.00002143e-06
1.00002348e-06
1.00002545e-06
1.00002729e-06
1.00002893e-06
1.00003031e-06
1.0000314e-06
1.00000013e-06
1.00000039e-06
1.00000066e-06
1.00000096e-06
1.0000013e-06
1.00000169e-06
1.00000214e-06
1.00000269e-06
1.00000333e-06
1.0000041e-06
1.000005e-06
1.00000605e-06
1.00000728e-06
1.00000869e-06
1.00001029e-06
1.0000121e-06
1.00001411e-06
1.00001631e-06
1.00001869e-06
1.00002121e-06
1.00002383e-06
1.0000265e-06
1.00002915e-06
1.00003172e-06
1.00003411e-06
1.00003626e-06
1.00003808e-06
1.00003951e-06
1.00000015e-06
1.00000045e-06
1.00000076e-06
1.00000111e-06
1.0000015e-06
1.00000196e-06
1.0000025e-06
1.00000315e-06
1.00000392e-06
1.00000485e-06
1.00000595e-06
1.00000725e-06
1.00000877e-06
1.00001053e-06
1.00001255e-06
1.00001484e-06
1.00001741e-06
1.00002024e-06
1.00002331e-06
1.00002659e-06
1.00003003e-06
1.00003355e-06
1.00003706e-06
1.00004048e-06
1.00004368e-06
1.00004656e-06
1.00004901e-06
1.00005094e-06
1.00000017e-06
1.00000052e-06
1.00000088e-06
1.00000129e-06
1.00000175e-06
1.00000229e-06
1.00000294e-06
1.00000372e-06
1.00000467e-06
1.0000058e-06
1.00000716e-06
1.00000877e-06
1.00001068e-06
1.0000129e-06
1.00001547e-06
1.00001841e-06
1.00002172e-06
1.0000254e-06
1.00002942e-06
1.00003375e-06
1.0000383e-06
1.00004299e-06
1.00004771e-06
1.0000523e-06
1.00005664e-06
1.00006055e-06
1.00006389e-06
1.00006652e-06
1.0000002e-06
1.0000006e-06
1.00000103e-06
1.0000015e-06
1.00000205e-06
1.0000027e-06
1.00000348e-06
1.00000443e-06
1.00000558e-06
1.00000697e-06
1.00000865e-06
1.00001067e-06
1.00001306e-06
1.00001588e-06
1.00001916e-06
1.00002294e-06
1.00002723e-06
1.00003203e-06
1.00003732e-06
1.00004304e-06
1.0000491e-06
1.00005539e-06
1.00006174e-06
1.00006797e-06
1.00007387e-06
1.00007921e-06
1.00008379e-06
1.00008741e-06
1.00000023e-06
1.0000007e-06
1.0000012e-06
1.00000176e-06
1.0000024e-06
1.00000318e-06
1.00000411e-06
1.00000526e-06
1.00000666e-06
1.00000838e-06
1.00001046e-06
1.00001297e-06
1.00001598e-06
1.00001955e-06
1.00002374e-06
1.00002859e-06
1.00003415e-06
1.00004041e-06
1.00004736e-06
1.00005493e-06
1.00006302e-06
1.00007146e-06
1.00008003e-06
1.00008849e-06
1.00009653e-06
1.00010385e-06
1.00011014e-06
1.00011512e-06
1.00000027e-06
1.00000082e-06
1.0000014e-06
1.00000205e-06
1.00000281e-06
1.00000373e-06
1.00000485e-06
1.00000623e-06
1.00000794e-06
1.00001003e-06
1.0000126e-06
1.00001572e-06
1.00001949e-06
1.00002399e-06
1.00002931e-06
1.00003553e-06
1.00004271e-06
1.00005086e-06
1.00005998e-06
1.00006999e-06
1.00008075e-06
1.00009206e-06
1.00010364e-06
1.00011512e-06
1.00012609e-06
1.00013613e-06
1.00014478e-06
1.00015166e-06
1.00000031e-06
1.00000094e-06
1.00000161e-06
1.00000237e-06
1.00000326e-06
1.00000435e-06
1.00000568e-06
1.00000734e-06
1.0000094e-06
1.00001195e-06
1.0000151e-06
1.00001896e-06
1.00002365e-06
1.00002929e-06
1.00003603e-06
1.00004396e-06
1.00005318e-06
1.00006375e-06
1.00007567e-06
1.00008885e-06
1.00010315e-06
1.00011828e-06
1.00013388e-06
1.00014945e-06
1.00016442e-06
1.00017818e-06
1.00019009e-06
1.00019958e-06
1.00000035e-06
1.00000108e-06
1.00000185e-06
1.00000272e-06
1.00000376e-06
1.00000504e-06
1.00000661e-06
1.00000859e-06
1.00001105e-06
1.00001414e-06
1.00001797e-06
1.0000227e-06
1.0000285e-06
1.00003554e-06
1.000044e-06
1.00005405e-06
1.00006584e-06
1.00007946e-06
1.00009496e-06
1.00011226e-06
1.00013118e-06
1.00015137e-06
1.00017234e-06
1.00019342e-06
1.00021382e-06
1.00023267e-06
1.00024906e-06
1.00026216e-06
1.0000004e-06
1.00000122e-06
1.0000021e-06
1.0000031e-06
1.0000043e-06
1.00000578e-06
1.00000762e-06
1.00000995e-06
1.00001289e-06
1.00001658e-06
1.00002121e-06
1.00002696e-06
1.00003407e-06
1.00004277e-06
1.00005332e-06
1.00006597e-06
1.00008093e-06
1.00009839e-06
1.00011843e-06
1.00014101e-06
1.00016593e-06
1.00019276e-06
1.00022086e-06
1.00024934e-06
1.00027711e-06
1.00030291e-06
1.00032545e-06
1.00034353e-06
1.00000045e-06
1.00000137e-06
1.00000236e-06
1.0000035e-06
1.00000486e-06
1.00000656e-06
1.0000087e-06
1.00001142e-06
1.00001488e-06
1.00001926e-06
1.0000248e-06
1.00003173e-06
1.00004036e-06
1.00005102e-06
1.00006406e-06
1.00007983e-06
1.00009868e-06
1.00012088e-06
1.00014661e-06
1.0001759e-06
1.00020854e-06
1.00024403e-06
1.00028156e-06
1.00031993e-06
1.00035764e-06
1.00039291e-06
1.0004239e-06
1.00044885e-06
1.0000005e-06
1.00000152e-06
1.00000263e-06
1.0000039e-06
1.00000544e-06
1.00000737e-06
1.00000983e-06
1.00001296e-06
1.00001698e-06
1.00002212e-06
1.00002865e-06
1.00003693e-06
1.00004732e-06
1.00006024e-06
1.00007619e-06
1.00009568e-06
1.0001192e-06
1.00014718e-06
1.00017996e-06
1.00021767e-06
1.00026015e-06
1.00030684e-06
1.00035673e-06
1.00040825e-06
1.00045933e-06
1.0005075e-06
1.00055007e-06
1.00058451e-06
1.00000055e-06
1.00000167e-06
1.00000289e-06
1.0000043e-06
1.00000602e-06
1.00000819e-06
1.00001096e-06
1.00001454e-06
1.00001916e-06
1.0000251e-06
1.00003273e-06
1.00004246e-06
1.00005478e-06
1.00007028e-06
1.00008961e-06
1.00011344e-06
1.00014247e-06
1.00017739e-06
1.00021874e-06
1.00026687e-06
1.00032174e-06
1.00038277e-06
1.00044873e-06
1.00051762e-06
1.00058664e-06
1.00065232e-06
1.0007108e-06
1.00075835e-06
1.00000059e-06
1.00000181e-06
1.00000313e-06
1.00000468e-06
1.00000657e-06
1.00000898e-06
1.00001208e-06
1.0000161e-06
1.00002132e-06
1.00002811e-06
1.00003689e-06
1.00004817e-06
1.0000626e-06
1.00008095e-06
1.00010408e-06
1.00013287e-06
1.00016827e-06
1.00021131e-06
1.00026292e-06
1.00032374e-06
1.00039396e-06
1.0004731e-06
1.00055976e-06
1.00065144e-06
1.00074442e-06
1.00083386e-06
1.00091422e-06
1.00097994e-06
1.00000063e-06
1.00000193e-06
1.00000335e-06
1.00000501e-06
1.00000707e-06
1.0000097e-06
1.00001311e-06
1.00001756e-06
1.0000234e-06
1.00003103e-06
1.00004097e-06
1.00005389e-06
1.00007056e-06
1.00009195e-06
1.0001191e-06
1.00015328e-06
1.00019593e-06
1.0002484e-06
1.00031198e-06
1.0003879e-06
1.00047682e-06
1.00057849e-06
1.00069148e-06
1.0008128e-06
1.00093765e-06
1.00105937e-06
1.00116995e-06
1.00126109e-06
1.00000067e-06
1.00000203e-06
1.00000353e-06
1.00000529e-06
1.00000749e-06
1.00001031e-06
1.000014e-06
1.00001885e-06
1.00002526e-06
1.00003369e-06
1.00004477e-06
1.00005929e-06
1.00007819e-06
1.00010263e-06
1.00013399e-06
1.00017397e-06
1.00022442e-06
1.00028726e-06
1.00036456e-06
1.00045817e-06
1.00056938e-06
1.00069855e-06
1.00084452e-06
1.00100403e-06
1.00117113e-06
1.00133682e-06
1.00148955e-06
1.00161675e-06
1.00000069e-06
1.0000021e-06
1.00000365e-06
1.00000549e-06
1.00000779e-06
1.00001077e-06
1.00001469e-06
1.00001988e-06
1.00002677e-06
1.00003591e-06
1.00004802e-06
1.00006401e-06
1.000085e-06
1.00011241e-06
1.000148e-06
1.00019388e-06
1.00025238e-06
1.00032628e-06
1.00041862e-06
1.0005322e-06
1.00066928e-06
1.00083124e-06
1.00101775e-06
1.00122589e-06
1.00144886e-06
1.00167492e-06
1.00188751e-06
1.00206719e-06
1.0000007e-06
1.00000213e-06
1.00000371e-06
1.00000558e-06
1.00000795e-06
1.00001103e-06
1.0000151e-06
1.00002053e-06
1.00002779e-06
1.00003749e-06
1.00005044e-06
1.00006767e-06
1.00009049e-06
1.00012059e-06
1.00016008e-06
1.00021151e-06
1.00027803e-06
1.00036326e-06
1.00047115e-06
1.00060607e-06
1.00077219e-06
1.00097223e-06
1.00120742e-06
1.00147667e-06
1.00177347e-06
1.00208353e-06
1.00238361e-06
1.00264295e-06
1.00000069e-06
1.00000211e-06
1.00000368e-06
1.00000556e-06
1.00000793e-06
1.00001104e-06
1.00001518e-06
1.00002073e-06
1.00002819e-06
1.00003824e-06
1.00005173e-06
1.00006983e-06
1.00009402e-06
1.00012622e-06
1.0001689e-06
1.00022515e-06
1.00029881e-06
1.00039451e-06
1.00051757e-06
1.00067408e-06
1.00087032e-06
1.00111235e-06
1.00140523e-06
1.00175088e-06
1.00214546e-06
1.00257482e-06
1.00300827e-06
1.00339611e-06
1.00000067e-06
1.00000204e-06
1.00000356e-06
1.00000539e-06
1.00000772e-06
1.00001078e-06
1.00001487e-06
1.00002038e-06
1.00002785e-06
1.00003795e-06
1.00005162e-06
1.00007008e-06
1.00009495e-06
1.00012837e-06
1.00017309e-06
1.00023269e-06
1.0003117e-06
1.00041577e-06
1.00055184e-06
1.000728e-06
1.00095361e-06
1.00123982e-06
1.0015982e-06
1.00203769e-06
1.00256239e-06
1.00316549e-06
1.00381309e-06
1.00442489e-06
1.00000063e-06
1.00000192e-06
1.00000335e-06
1.00000508e-06
1.00000729e-06
1.00001021e-06
1.00001413e-06
1.00001944e-06
1.00002666e-06
1.00003649e-06
1.00004987e-06
1.00006806e-06
1.00009274e-06
1.00012618e-06
1.00017134e-06
1.00023216e-06
1.00031375e-06
1.00042272e-06
1.00056753e-06
1.00075885e-06
1.00101039e-06
1.00133931e-06
1.00176637e-06
1.00231684e-06
1.00301589e-06
1.00387934e-06
1.00488856e-06
1.00592217e-06
1.00000057e-06
1.00000174e-06
1.00000304e-06
1.00000462e-06
1.00000664e-06
1.00000932e-06
1.00001293e-06
1.00001785e-06
1.00002457e-06
1.00003376e-06
1.00004633e-06
1.00006351e-06
1.00008699e-06
1.00011902e-06
1.00016263e-06
1.00022191e-06
1.00030233e-06
1.00041117e-06
1.00055823e-06
1.00075672e-06
1.00102475e-06
1.00138745e-06
1.00187996e-06
1.00255331e-06
1.00348048e-06
1.00474193e-06
1.00638258e-06
1.0082494e-06
1.00000049e-06
1.00000151e-06
1.00000264e-06
1.00000401e-06
1.00000578e-06
1.00000812e-06
1.0000113e-06
1.00001564e-06
1.00002158e-06
1.00002975e-06
1.00004097e-06
1.00005638e-06
1.00007754e-06
1.00010658e-06
1.0001464e-06
1.00020095e-06
1.00027564e-06
1.00037794e-06
1.00051824e-06
1.00071141e-06
1.00097945e-06
1.00135626e-06
1.00189632e-06
1.00268958e-06
1.00388732e-06
1.00573302e-06
1.00847058e-06
1.01193389e-06
1.0000004e-06
1.00000123e-06
1.00000215e-06
1.00000327e-06
1.00000472e-06
1.00000664e-06
1.00000926e-06
1.00001284e-06
1.00001776e-06
1.00002454e-06
1.00003389e-06
1.00004677e-06
1.00006453e-06
1.00008902e-06
1.00012276e-06
1.00016926e-06
1.0002334e-06
1.00032201e-06
1.00044498e-06
1.0006171e-06
1.00086172e-06
1.00121848e-06
1.00175952e-06
1.00262312e-06
1.00407527e-06
1.00660778e-06
1.01110603e-06
1.01695525e-06
1.00000029e-06
1.0000009e-06
1.00000159e-06
1.00000242e-06
1.00000349e-06
1.00000493e-06
1.00000688e-06
1.00000955e-06
1.00001323e-06
1.00001831e-06
1.00002533e-06
1.00003503e-06
1.00004845e-06
1.00006699e-06
1.00009263e-06
1.0001281e-06
1.00017723e-06
1.00024548e-06
1.00034084e-06
1.0004756e-06
1.00067e-06
1.00096044e-06
1.00141907e-06
1.00220089e-06
1.00364917e-06
1.00644679e-06
1.01126107e-06
1.02522856e-06
1.00000028e-06
1.00000085e-06
1.00000143e-06
1.00000207e-06
1.00000278e-06
1.00000358e-06
1.00000451e-06
1.00000558e-06
1.00000683e-06
1.00000829e-06
1.00000996e-06
1.00001189e-06
1.00001408e-06
1.00001655e-06
1.00001931e-06
1.00002235e-06
1.00002567e-06
1.00002923e-06
1.00003301e-06
1.00003694e-06
1.00004095e-06
1.00004498e-06
1.00004891e-06
1.00005267e-06
1.00005613e-06
1.00005921e-06
1.00006179e-06
1.00006381e-06
1.00000029e-06
1.00000086e-06
1.00000146e-06
1.00000211e-06
1.00000283e-06
1.00000366e-06
1.00000461e-06
1.00000571e-06
1.000007e-06
1.0000085e-06
1.00001024e-06
1.00001223e-06
1.0000145e-06
1.00001708e-06
1.00001995e-06
1.00002313e-06
1.0000266e-06
1.00003034e-06
1.00003431e-06
1.00003844e-06
1.00004268e-06
1.00004694e-06
1.00005111e-06
1.00005509e-06
1.00005878e-06
1.00006205e-06
1.0000648e-06
1.00006695e-06
1.0000003e-06
1.00000091e-06
1.00000155e-06
1.00000224e-06
1.00000301e-06
1.00000388e-06
1.0000049e-06
1.0000061e-06
1.00000749e-06
1.00000912e-06
1.00001102e-06
1.00001321e-06
1.00001571e-06
1.00001856e-06
1.00002176e-06
1.00002532e-06
1.00002922e-06
1.00003344e-06
1.00003793e-06
1.00004264e-06
1.00004749e-06
1.00005237e-06
1.00005717e-06
1.00006177e-06
1.00006604e-06
1.00006984e-06
1.00007305e-06
1.00007556e-06
1.00000033e-06
1.000001e-06
1.0000017e-06
1.00000246e-06
1.00000331e-06
1.0000043e-06
1.00000544e-06
1.00000679e-06
1.00000838e-06
1.00001025e-06
1.00001243e-06
1.00001497e-06
1.0000179e-06
1.00002125e-06
1.00002504e-06
1.00002927e-06
1.00003395e-06
1.00003903e-06
1.00004448e-06
1.00005023e-06
1.00005617e-06
1.00006219e-06
1.00006814e-06
1.00007386e-06
1.00007919e-06
1.00008395e-06
1.00008797e-06
1.00009113e-06
1.00000037e-06
1.00000113e-06
1.00000192e-06
1.00000279e-06
1.00000376e-06
1.00000489e-06
1.00000622e-06
1.0000078e-06
1.00000967e-06
1.00001189e-06
1.0000145e-06
1.00001756e-06
1.00002112e-06
1.00002521e-06
1.00002987e-06
1.00003512e-06
1.00004095e-06
1.00004734e-06
1.00005424e-06
1.00006155e-06
1.00006916e-06
1.0000769e-06
1.0000846e-06
1.00009204e-06
1.00009899e-06
1.00010522e-06
1.00011051e-06
1.00011467e-06
1.00000043e-06
1.0000013e-06
1.00000221e-06
1.00000321e-06
1.00000435e-06
1.00000568e-06
1.00000725e-06
1.00000913e-06
1.00001138e-06
1.00001407e-06
1.00001726e-06
1.00002103e-06
1.00002544e-06
1.00003055e-06
1.00003642e-06
1.00004307e-06
1.00005051e-06
1.00005873e-06
1.00006765e-06
1.00007718e-06
1.00008715e-06
1.00009736e-06
1.00010756e-06
1.00011747e-06
1.00012676e-06
1.00013512e-06
1.00014223e-06
1.00014784e-06
1.0000005e-06
1.00000151e-06
1.00000257e-06
1.00000374e-06
1.00000508e-06
1.00000665e-06
1.00000854e-06
1.00001081e-06
1.00001355e-06
1.00001684e-06
1.00002078e-06
1.00002546e-06
1.00003099e-06
1.00003744e-06
1.0000449e-06
1.00005343e-06
1.00006304e-06
1.00007371e-06
1.00008539e-06
1.00009794e-06
1.00011115e-06
1.00012477e-06
1.00013845e-06
1.00015179e-06
1.00016437e-06
1.00017572e-06
1.00018541e-06
1.00019306e-06
1.00000058e-06
1.00000175e-06
1.00000299e-06
1.00000437e-06
1.00000595e-06
1.00000783e-06
1.0000101e-06
1.00001285e-06
1.00001619e-06
1.00002024e-06
1.00002512e-06
1.00003097e-06
1.00003792e-06
1.00004609e-06
1.00005562e-06
1.00006658e-06
1.00007902e-06
1.00009296e-06
1.0001083e-06
1.0001249e-06
1.00014251e-06
1.00016075e-06
1.00017919e-06
1.00019727e-06
1.00021438e-06
1.00022989e-06
1.00024317e-06
1.00025367e-06
1.00000067e-06
1.00000204e-06
1.00000349e-06
1.0000051e-06
1.00000698e-06
1.00000922e-06
1.00001194e-06
1.00001527e-06
1.00001934e-06
1.00002431e-06
1.00003036e-06
1.00003765e-06
1.00004638e-06
1.00005674e-06
1.00006889e-06
1.00008297e-06
1.00009909e-06
1.00011727e-06
1.00013744e-06
1.00015942e-06
1.00018289e-06
1.00020737e-06
1.00023226e-06
1.0002568e-06
1.00028014e-06
1.00030138e-06
1.00031963e-06
1.0003341e-06
1.00000078e-06
1.00000237e-06
1.00000405e-06
1.00000594e-06
1.00000815e-06
1.00001081e-06
1.00001407e-06
1.00001808e-06
1.00002303e-06
1.00002912e-06
1.00003657e-06
1.00004563e-06
1.00005657e-06
1.00006963e-06
1.00008507e-06
1.00010312e-06
1.00012394e-06
1.0001476e-06
1.00017406e-06
1.00020311e-06
1.00023435e-06
1.00026718e-06
1.00030076e-06
1.00033408e-06
1.00036593e-06
1.00039505e-06
1.00042016e-06
1.00044011e-06
1.0000009e-06
1.00000272e-06
1.00000468e-06
1.00000688e-06
1.00000947e-06
1.00001262e-06
1.00001649e-06
1.0000213e-06
1.00002728e-06
1.00003469e-06
1.00004382e-06
1.00005502e-06
1.00006863e-06
1.00008502e-06
1.00010455e-06
1.00012757e-06
1.00015434e-06
1.00018501e-06
1.00021959e-06
1.00025786e-06
1.00029934e-06
1.00034327e-06
1.00038852e-06
1.0004337e-06
1.00047715e-06
1.00051707e-06
1.00055162e-06
1.00057916e-06
1.00000103e-06
1.00000312e-06
1.00000536e-06
1.0000079e-06
1.00001092e-06
1.00001462e-06
1.0000192e-06
1.00002492e-06
1.00003208e-06
1.00004103e-06
1.00005215e-06
1.00006588e-06
1.0000827e-06
1.00010313e-06
1.00012768e-06
1.00015685e-06
1.00019106e-06
1.00023061e-06
1.00027559e-06
1.00032579e-06
1.00038069e-06
1.00043928e-06
1.00050011e-06
1.00056129e-06
1.0006205e-06
1.00067517e-06
1.00072272e-06
1.00076072e-06
1.00000117e-06
1.00000354e-06
1.00000609e-06
1.00000899e-06
1.00001248e-06
1.00001676e-06
1.00002212e-06
1.00002888e-06
1.00003741e-06
1.00004813e-06
1.00006155e-06
1.00007824e-06
1.00009887e-06
1.00012412e-06
1.00015474e-06
1.00019144e-06
1.00023487e-06
1.00028554e-06
1.00034369e-06
1.00040921e-06
1.00048151e-06
1.00055937e-06
1.00064091e-06
1.00072355e-06
1.00080409e-06
1.00087893e-06
1.00094431e-06
1.00099676e-06
1.00000131e-06
1.00000397e-06
1.00000685e-06
1.00001014e-06
1.00001411e-06
1.00001903e-06
1.00002525e-06
1.00003314e-06
1.00004317e-06
1.0000559e-06
1.00007196e-06
1.00009207e-06
1.00011712e-06
1.00014805e-06
1.00018589e-06
1.00023168e-06
1.00028637e-06
1.00035079e-06
1.00042546e-06
1.00051045e-06
1.00060515e-06
1.00070813e-06
1.000817e-06
1.00092831e-06
1.00103767e-06
1.00113996e-06
1.00122981e-06
1.00130216e-06
1.00000145e-06
1.00000442e-06
1.00000762e-06
1.00001131e-06
1.00001578e-06
1.00002139e-06
1.00002852e-06
1.00003762e-06
1.00004929e-06
1.0000642e-06
1.00008316e-06
1.00010717e-06
1.00013731e-06
1.00017481e-06
1.00022111e-06
1.00027768e-06
1.00034592e-06
1.00042712e-06
1.00052223e-06
1.00063163e-06
1.00075487e-06
1.00089033e-06
1.00103503e-06
1.00118443e-06
1.00133252e-06
1.00147213e-06
1.00159551e-06
1.00169528e-06
1.00000159e-06
1.00000485e-06
1.00000838e-06
1.00001247e-06
1.00001747e-06
1.00002376e-06
1.00003182e-06
1.0000422e-06
1.0000556e-06
1.00007285e-06
1.00009498e-06
1.00012322e-06
1.00015897e-06
1.00020396e-06
1.00026006e-06
1.00032922e-06
1.00041346e-06
1.00051476e-06
1.00063475e-06
1.00077438e-06
1.00093352e-06
1.00111051e-06
1.00130175e-06
1.00150142e-06
1.00170139e-06
1.00189158e-06
1.00206088e-06
1.00219845e-06
1.00000172e-06
1.00000525e-06
1.00000909e-06
1.00001357e-06
1.00001907e-06
1.00002605e-06
1.00003505e-06
1.00004672e-06
1.00006189e-06
1.00008158e-06
1.00010706e-06
1.00013981e-06
1.00018167e-06
1.00023493e-06
1.00030205e-06
1.00038558e-06
1.00048829e-06
1.00061319e-06
1.0007629e-06
1.00093929e-06
1.00114291e-06
1.00137231e-06
1.00162341e-06
1.0018889e-06
1.00215797e-06
1.0024166e-06
1.00264877e-06
1.00283853e-06
1.00000184e-06
1.00000561e-06
1.00000973e-06
1.00001455e-06
1.00002052e-06
1.00002815e-06
1.00003804e-06
1.00005097e-06
1.0000679e-06
1.00009005e-06
1.00011891e-06
1.00015638e-06
1.00020478e-06
1.00026683e-06
1.00034562e-06
1.00044479e-06
1.00056854e-06
1.00072077e-06
1.00090517e-06
1.0011253e-06
1.00138303e-06
1.00167753e-06
1.00200456e-06
1.0023554e-06
1.002716e-06
1.00306707e-06
1.00338552e-06
1.00364766e-06
1.00000193e-06
1.0000059e-06
1.00001024e-06
1.00001536e-06
1.00002173e-06
1.00002993e-06
1.00004063e-06
1.00005472e-06
1.00007329e-06
1.00009777e-06
1.00012994e-06
1.00017205e-06
1.00022691e-06
1.00029783e-06
1.00038881e-06
1.00050481e-06
1.00065118e-06
1.00083345e-06
1.00105757e-06
1.00132885e-06
1.00165095e-06
1.00202471e-06
1.00244653e-06
1.00290673e-06
1.00338781e-06
1.00386366e-06
1.0043011e-06
1.00466448e-06
1.000002e-06
1.00000609e-06
1.0000106e-06
1.00001593e-06
1.00002261e-06
1.00003126e-06
1.00004262e-06
1.00005768e-06
1.00007768e-06
1.00010422e-06
1.00013937e-06
1.00018575e-06
1.00024668e-06
1.00032621e-06
1.00042947e-06
1.00056256e-06
1.00073225e-06
1.00094652e-06
1.00121414e-06
1.00154307e-06
1.00193965e-06
1.00240749e-06
1.00294512e-06
1.00354342e-06
1.00418198e-06
1.00482654e-06
1.0054297e-06
1.00593702e-06
1.00000202e-06
1.00000618e-06
1.00001076e-06
1.00001621e-06
1.00002307e-06
1.00003201e-06
1.00004383e-06
1.00005958e-06
1.00008065e-06
1.00010881e-06
1.00014638e-06
1.00019637e-06
1.0002626e-06
1.00034994e-06
1.0004645e-06
1.00061369e-06
1.00080657e-06
1.00105361e-06
1.0013661e-06
1.00175643e-06
1.00223624e-06
1.0028126e-06
1.0034879e-06
1.00425733e-06
1.00510016e-06
1.00597375e-06
1.00681163e-06
1.00752924e-06
1.000002e-06
1.00000612e-06
1.00001068e-06
1.00001613e-06
1.00002303e-06
1.00003205e-06
1.00004405e-06
1.00006016e-06
1.00008182e-06
1.00011096e-06
1.00015013e-06
1.00020264e-06
1.00027283e-06
1.00036626e-06
1.00049007e-06
1.00065321e-06
1.00086673e-06
1.00114396e-06
1.00150008e-06
1.00195219e-06
1.00251766e-06
1.00321236e-06
1.00404836e-06
1.00502717e-06
1.00613262e-06
1.00731907e-06
1.00849759e-06
1.00953489e-06
1.00000194e-06
1.00000592e-06
1.00001034e-06
1.00001565e-06
1.0000224e-06
1.00003128e-06
1.00004315e-06
1.00005916e-06
1.00008081e-06
1.00011013e-06
1.0001498e-06
1.00020336e-06
1.00027554e-06
1.00037247e-06
1.00050219e-06
1.000675e-06
1.00090393e-06
1.00120521e-06
1.00159849e-06
1.00210635e-06
1.00275428e-06
1.00357133e-06
1.00458533e-06
1.00581286e-06
1.00725225e-06
1.00886819e-06
1.010555e-06
1.01210299e-06
1.00000182e-06
1.00000556e-06
1.00000973e-06
1.00001475e-06
1.00002115e-06
1.00002962e-06
1.00004099e-06
1.0000564e-06
1.00007736e-06
1.00010589e-06
1.00014471e-06
1.00019749e-06
1.00026912e-06
1.00036611e-06
1.00049709e-06
1.00067337e-06
1.00090966e-06
1.00122482e-06
1.00164272e-06
1.00219282e-06
1.00291193e-06
1.00384379e-06
1.005037e-06
1.00654357e-06
1.00840153e-06
1.01060838e-06
1.01306819e-06
1.0154687e-06
1.00000165e-06
1.00000504e-06
1.00000883e-06
1.0000134e-06
1.00001927e-06
1.00002705e-06
1.00003754e-06
1.00005181e-06
1.0000713e-06
1.00009796e-06
1.00013444e-06
1.00018431e-06
1.00025242e-06
1.00034531e-06
1.00047177e-06
1.00064355e-06
1.00087629e-06
1.00119074e-06
1.00161431e-06
1.00218311e-06
1.00294486e-06
1.00396196e-06
1.00531443e-06
1.00710545e-06
1.0094602e-06
1.01247076e-06
1.01609919e-06
1.01992923e-06
1.00000143e-06
1.00000437e-06
1.00000766e-06
1.00001164e-06
1.00001676e-06
1.00002357e-06
1.00003279e-06
1.00004538e-06
1.00006264e-06
1.00008633e-06
1.00011888e-06
1.00016359e-06
1.00022499e-06
1.00030921e-06
1.00042463e-06
1.00058264e-06
1.00079869e-06
1.00109387e-06
1.00149707e-06
1.00204843e-06
1.00280472e-06
1.0038479e-06
1.00529814e-06
1.00733009e-06
1.0101928e-06
1.01420481e-06
1.01950263e-06
1.02550922e-06
1.00000116e-06
1.00000356e-06
1.00000623e-06
1.00000949e-06
1.00001369e-06
1.00001928e-06
1.00002687e-06
1.00003726e-06
1.00005154e-06
1.00007122e-06
1.00009833e-06
1.00013571e-06
1.00018724e-06
1.00025825e-06
1.00035604e-06
1.00049069e-06
1.00067607e-06
1.00093146e-06
1.00128406e-06
1.0017732e-06
1.00245794e-06
1.00343126e-06
1.00484648e-06
1.00696123e-06
1.0101868e-06
1.01510104e-06
1.02240192e-06
1.03056955e-06
1.00000086e-06
1.00000263e-06
1.00000461e-06
1.00000702e-06
1.00001014e-06
1.0000143e-06
1.00001995e-06
1.00002771e-06
1.00003839e-06
1.00005313e-06
1.0000735e-06
1.00010166e-06
1.00014056e-06
1.00019434e-06
1.00026864e-06
1.00037131e-06
1.00051324e-06
1.00070971e-06
1.00098258e-06
1.00136411e-06
1.0019043e-06
1.00268594e-06
1.00385608e-06
1.00568987e-06
1.00869488e-06
1.01361727e-06
1.02049062e-06
1.03856078e-06
1.00000044e-06
1.00000132e-06
1.00000223e-06
1.00000322e-06
1.00000432e-06
1.00000557e-06
1.00000702e-06
1.0000087e-06
1.00001064e-06
1.00001291e-06
1.00001552e-06
1.00001852e-06
1.00002193e-06
1.00002578e-06
1.00003008e-06
1.00003482e-06
1.00003998e-06
1.00004553e-06
1.00005141e-06
1.00005753e-06
1.00006378e-06
1.00007005e-06
1.00007619e-06
1.00008203e-06
1.00008743e-06
1.00009221e-06
1.00009624e-06
1.00009938e-06
1.00000045e-06
1.00000135e-06
1.00000228e-06
1.00000329e-06
1.00000441e-06
1.0000057e-06
1.00000718e-06
1.0000089e-06
1.00001091e-06
1.00001324e-06
1.00001594e-06
1.00001905e-06
1.00002259e-06
1.0000266e-06
1.00003107e-06
1.00003603e-06
1.00004143e-06
1.00004725e-06
1.00005343e-06
1.00005988e-06
1.00006648e-06
1.00007311e-06
1.00007961e-06
1.00008581e-06
1.00009155e-06
1.00009664e-06
1.00010093e-06
1.00010428e-06
1.00000047e-06
1.00000142e-06
1.00000241e-06
1.00000348e-06
1.00000468e-06
1.00000605e-06
1.00000764e-06
1.0000095e-06
1.00001167e-06
1.00001421e-06
1.00001716e-06
1.00002057e-06
1.00002448e-06
1.00002891e-06
1.0000339e-06
1.00003943e-06
1.00004551e-06
1.00005208e-06
1.00005908e-06
1.00006641e-06
1.00007396e-06
1.00008156e-06
1.00008905e-06
1.00009622e-06
1.00010286e-06
1.00010878e-06
1.00011378e-06
1.00011769e-06
1.00000052e-06
1.00000156e-06
1.00000265e-06
1.00000383e-06
1.00000516e-06
1.00000669e-06
1.00000848e-06
1.00001058e-06
1.00001305e-06
1.00001596e-06
1.00001936e-06
1.00002332e-06
1.00002788e-06
1.0000331e-06
1.000039e-06
1.00004559e-06
1.00005287e-06
1.00006079e-06
1.00006929e-06
1.00007823e-06
1.00008749e-06
1.00009686e-06
1.00010613e-06
1.00011504e-06
1.00012334e-06
1.00013075e-06
1.00013702e-06
1.00014194e-06
1.00000058e-06
1.00000176e-06
1.000003e-06
1.00000434e-06
1.00000586e-06
1.00000762e-06
1.00000969e-06
1.00001215e-06
1.00001506e-06
1.00001851e-06
1.00002258e-06
1.00002735e-06
1.00003289e-06
1.00003926e-06
1.00004652e-06
1.0000547e-06
1.00006378e-06
1.00007374e-06
1.00008448e-06
1.00009587e-06
1.00010772e-06
1.00011978e-06
1.00013177e-06
1.00014336e-06
1.00015418e-06
1.00016389e-06
1.00017213e-06
1.0001786e-06
1.00000067e-06
1.00000202e-06
1.00000344e-06
1.000005e-06
1.00000677e-06
1.00000884e-06
1.00001129e-06
1.00001422e-06
1.00001773e-06
1.00002191e-06
1.00002689e-06
1.00003275e-06
1.00003962e-06
1.00004758e-06
1.00005672e-06
1.00006708e-06
1.00007868e-06
1.00009147e-06
1.00010537e-06
1.00012021e-06
1.00013574e-06
1.00015164e-06
1.00016753e-06
1.00018296e-06
1.00019743e-06
1.00021045e-06
1.00022153e-06
1.00023026e-06
1.00000078e-06
1.00000235e-06
1.000004e-06
1.00000582e-06
1.00000791e-06
1.00001036e-06
1.0000133e-06
1.00001684e-06
1.0000211e-06
1.00002622e-06
1.00003236e-06
1.00003966e-06
1.00004827e-06
1.00005832e-06
1.00006994e-06
1.00008321e-06
1.00009818e-06
1.00011481e-06
1.000133e-06
1.00015254e-06
1.00017313e-06
1.00019434e-06
1.00021564e-06
1.00023642e-06
1.00025601e-06
1.00027369e-06
1.00028879e-06
1.0003007e-06
1.0000009e-06
1.00000273e-06
1.00000466e-06
1.0000068e-06
1.00000927e-06
1.0000122e-06
1.00001573e-06
1.00002001e-06
1.00002521e-06
1.00003152e-06
1.00003912e-06
1.00004823e-06
1.00005905e-06
1.00007179e-06
1.00008663e-06
1.0001037e-06
1.00012308e-06
1.00014478e-06
1.00016869e-06
1.00019454e-06
1.00022196e-06
1.00025038e-06
1.00027909e-06
1.00030725e-06
1.0003339e-06
1.00035805e-06
1.00037874e-06
1.0003951e-06
1.00000105e-06
1.00000318e-06
1.00000543e-06
1.00000794e-06
1.00001087e-06
1.00001436e-06
1.0000186e-06
1.00002378e-06
1.00003012e-06
1.00003787e-06
1.00004728e-06
1.00005864e-06
1.00007224e-06
1.00008837e-06
1.00010729e-06
1.00012923e-06
1.00015434e-06
1.00018266e-06
1.00021407e-06
1.0002483e-06
1.00028485e-06
1.00032298e-06
1.00036174e-06
1.00039996e-06
1.00043631e-06
1.00046939e-06
1.00049782e-06
1.00052035e-06
1.00000121e-06
1.00000368e-06
1.00000631e-06
1.00000925e-06
1.00001269e-06
1.00001684e-06
1.00002192e-06
1.00002817e-06
1.00003587e-06
1.00004535e-06
1.00005696e-06
1.00007108e-06
1.0000881e-06
1.00010845e-06
1.00013251e-06
1.00016062e-06
1.00019305e-06
1.0002299e-06
1.00027111e-06
1.00031635e-06
1.000365e-06
1.00041613e-06
1.00046844e-06
1.00052032e-06
1.00056993e-06
1.00061527e-06
1.00065438e-06
1.00068545e-06
1.0000014e-06
1.00000424e-06
1.00000729e-06
1.00001071e-06
1.00001475e-06
1.00001965e-06
1.00002569e-06
1.00003318e-06
1.00004249e-06
1.00005403e-06
1.00006826e-06
1.00008569e-06
1.00010689e-06
1.00013242e-06
1.00016285e-06
1.0001987e-06
1.00024038e-06
1.00028816e-06
1.00034201e-06
1.00040161e-06
1.00046623e-06
1.00053463e-06
1.00060511e-06
1.00067547e-06
1.00074313e-06
1.00080528e-06
1.00085909e-06
1.00090197e-06
1.0000016e-06
1.00000486e-06
1.00000835e-06
1.0000123e-06
1.000017e-06
1.00002276e-06
1.0000299e-06
1.00003881e-06
1.00004997e-06
1.0000639e-06
1.00008122e-06
1.00010261e-06
1.00012881e-06
1.00016063e-06
1.00019887e-06
1.0002443e-06
1.00029759e-06
1.00035918e-06
1.00042922e-06
1.00050742e-06
1.0005929e-06
1.00068414e-06
1.00077888e-06
1.00087414e-06
1.00096632e-06
1.00105146e-06
1.00112548e-06
1.00118464e-06
1.00000182e-06
1.00000552e-06
1.00000948e-06
1.00001401e-06
1.00001944e-06
1.00002611e-06
1.00003445e-06
1.00004499e-06
1.00005827e-06
1.00007496e-06
1.00009586e-06
1.00012187e-06
1.00015399e-06
1.00019332e-06
1.00024101e-06
1.00029817e-06
1.00036581e-06
1.00044472e-06
1.00053528e-06
1.00063733e-06
1.00074991e-06
1.00087115e-06
1.0009981e-06
1.00112676e-06
1.00125214e-06
1.00136862e-06
1.00147038e-06
1.00155198e-06
1.00000204e-06
1.00000619e-06
1.00001067e-06
1.0000158e-06
1.00002198e-06
1.00002964e-06
1.00003932e-06
1.00005162e-06
1.00006724e-06
1.00008706e-06
1.00011208e-06
1.00014341e-06
1.00018242e-06
1.0002306e-06
1.00028953e-06
1.00036084e-06
1.00044602e-06
1.00054634e-06
1.00066263e-06
1.00079496e-06
1.00094241e-06
1.00110275e-06
1.00127222e-06
1.00144546e-06