/*--------------------------------*- C++ -*----------------------------------*\
| =========                 |                                                 |
| \\      /  F ield         | foam-extend: Open Source CFD                    |
|  \\    /   O peration     | Version:     4.1                                |
|   \\  /    A nd           | Web:         http://www.foam-extend.org         |
|    \\/     M anipulation  |                                                 |
\*---------------------------------------------------------------------------*/
FoamFile
{
    version     2.0;
    format      ascii;
    class       surfaceScalarField;
    location    "0.65";
    object      meshPhi;
}
// * * * * * * * * * * * * * * * * * * * * * * * * * * * * * * * * * * * * * //

dimensions      [0 3 -1 0 0 0 0];

internalField   nonuniform List<scalar> 
102656
(
5.78241365e-21
2.63785935e-13
5.78241365e-21
0
7.96779671e-13
-9.21461598e-29
-1.15648362e-20
1.35062855e-12
-1.56197804e-28
4.62593634e-20
1.94751098e-12
-5.78242682e-21
6.85456996e-28
2.61164763e-12
-5.78243232e-21
0
3.36718555e-12
5.78243794e-21
-4.625944e-20
4.23842037e-12
-4.9016582e-28
2.68010449e-27
5.24983449e-12
5.78245268e-21
-4.62595137e-20
6.42592066e-12
5.78246189e-21
7.88567569e-27
7.79076358e-12
-5.78247258e-21
-9.25192297e-20
9.36735773e-12
0
5.61676822e-27
1.11766487e-11
5.78249909e-21
0
1.32363e-11
-5.78251675e-21
0
1.55592101e-11
5.78253341e-21
9.25198078e-20
1.815183e-11
-5.78255581e-21
-9.25200161e-20
2.10123679e-11
1.15651547e-20
0
2.41290033e-11
-5.78260331e-21
2.70222262e-26
2.74782677e-11
-3.17781307e-27
9.25206729e-20
3.10237818e-11
1.15653126e-20
-9.25208437e-20
3.47155516e-11
-5.78268743e-21
0
3.84900251e-11
-5.78271743e-21
9.25213922e-20
4.22710783e-11
-5.78274748e-21
-1.85043203e-19
4.59720384e-11
-5.7827769e-21
-2.77565427e-19
4.94987627e-11
-5.78280493e-21
1.85044075e-19
5.27536797e-11
-5.7828308e-21
-1.8504431e-19
5.56405786e-11
-5.78285374e-21
1.85044693e-19
5.80698305e-11
-5.78287305e-21
5.9963657e-11
-1.15657693e-20
-1.85044897e-19
-3.11427902e-29
5.33074886e-13
-3.11427902e-29
-1.25818484e-28
1.61003925e-12
-9.4052032e-29
1.15648364e-20
2.72901464e-12
0
-2.31296824e-20
3.93523587e-12
0
4.62593888e-20
5.27817643e-12
-5.78243307e-21
-6.93891209e-20
6.80718016e-12
-5.78243891e-21
4.62594456e-20
8.57195504e-12
5.78244551e-21
0
1.06226845e-11
0
4.62595226e-20
1.30096957e-11
-7.61401936e-28
-4.62595667e-20
1.57826289e-11
5.78247415e-21
-1.85038495e-19
1.89890618e-11
-1.11273306e-27
4.62596783e-20
2.26725592e-11
-5.78250292e-21
-9.25195243e-20
2.68701481e-11
0
9.25196869e-20
3.16092642e-11
5.78253911e-21
9.25198678e-20
3.69042699e-11
-2.16868652e-27
9.25200452e-20
4.27527167e-11
-5.78258433e-21
-9.25202826e-20
4.91316e-11
5.78260736e-21
2.80619461e-26
5.59939347e-11
5.78263487e-21
3.15982192e-26
6.32660416e-11
0
0
7.08459749e-11
-5.78269869e-21
0
7.86035178e-11
0
-4.26534283e-26
8.63821108e-11
-5.1013629e-27
2.77565192e-19
9.40029537e-11
5.78278773e-21
1.85043935e-19
1.01271335e-10
-5.98740644e-27
0
1.07985003e-10
0
0
1.13944133e-10
-5.78286821e-21
0
1.18962223e-10
5.78288849e-21
1.22877053e-10
0
-1.85045162e-19
5.78241382e-21
8.17884788e-13
5.78241382e-21
-1.33074326e-28
2.47019012e-12
-9.94749256e-29
-2.04224757e-28
4.18731226e-12
-5.78242317e-21
-4.62593697e-20
6.03984564e-12
-2.43394397e-28
7.42618898e-28
8.10516945e-12
-5.78243371e-21
4.62594219e-20
1.04605989e-11
-4.22511411e-28
-4.62594533e-20
1.318425e-11
-5.78244822e-21
-2.93135588e-27
1.63552975e-11
-5.78245712e-21
-9.25190744e-20
2.005353e-11
0
-9.25191741e-20
2.43581123e-11
-5.78248071e-21
-9.25192939e-20
2.93454741e-11
-5.78249387e-21
-1.85038876e-19
3.50862693e-11
0
0
4.16413955e-11
-1.15650579e-20
0
4.90571294e-11
0
9.25199662e-20
5.73595253e-11
-2.36561411e-27
-9.25201859e-20
6.65483375e-11
-5.78260067e-21
-9.25204525e-20
7.65908571e-11
-1.15652564e-20
-9.25206825e-20
8.74161837e-11
-5.78266129e-21
-1.85041944e-19
9.8910569e-11
5.78269073e-21
-9.25211979e-20
1.10914545e-10
-4.63385926e-27
4.34054216e-26
1.23222556e-10
0
4.76395675e-26
1.35585732e-10
0
9.25220906e-20
1.47718237e-10
-5.78283852e-21
-1.85044763e-19
1.59307326e-10
1.1565739e-20
0
1.70026848e-10
7.17502967e-27
1.85045726e-19
1.79553473e-10
-1.15658586e-20
0
1.8758452e-10
5.78294912e-21
1.93855925e-10
-5.7829758e-21
-1.85046326e-19
5.78241403e-21
1.13036067e-12
5.782414e-21
0
3.41418503e-12
-1.09171348e-28
2.24421623e-28
5.78910827e-12
5.78242431e-21
2.31296885e-20
8.35513072e-12
-5.78242998e-21
-2.31297018e-20
1.12221517e-11
-1.15648727e-20
2.31297184e-20
1.45003413e-11
-5.78244368e-21
0
1.83015421e-11
-5.78245165e-21
0
2.27397959e-11
0
8.03496609e-27
2.7930857e-11
-1.15649474e-20
-4.62596191e-20
3.39905542e-11
0
0
4.10318689e-11
-5.78250443e-21
-7.10362865e-27
4.91606304e-11
5.78252178e-21
-9.25197317e-20
5.84697864e-11
-5.78254335e-21
0
6.9032297e-11
-5.78257031e-21
9.25202012e-20
8.08928388e-11
1.15651945e-20
-9.25204401e-20
9.40586688e-11
0
0
1.08490204e-10
-3.68910308e-27
3.62273111e-26
1.24092077e-10
0
9.25214107e-20
1.40705622e-10
5.78273894e-21
-1.8504343e-19
1.58103898e-10
-5.45736525e-27
9.25220691e-20
1.75990375e-10
1.1565656e-20
-9.25224235e-20
1.9400234e-10
5.78287596e-21
-9.25227695e-20
2.11719774e-10
-7.40166459e-27
6.65997295e-26
2.28679999e-10
0
0
2.44397782e-10
5.78299426e-21
0
2.5838983e-10
-9.1172853e-27
0
2.70201952e-10
-9.55455982e-27
2.79436567e-10
1.15661741e-20
-1.85048058e-19
5.78241434e-21
1.48254531e-12
5.78241434e-21
0
4.4786668e-12
-5.78242004e-21
-1.15648406e-20
7.59750303e-12
-5.78242574e-21
4.62593881e-20
1.09743432e-11
1.15648645e-20
9.31215295e-28
1.47583006e-11
0
1.19634146e-27
1.90995399e-11
-5.78244812e-21
0
2.41514647e-11
0
-4.62595512e-20
3.00717029e-11
1.1564938e-20
-4.62596073e-20
3.70216971e-11
0
9.25193617e-20
4.51646891e-11
-5.78250036e-21
6.91907936e-27
5.46618959e-11
1.15650382e-20
0
6.56667017e-11
-5.78254083e-21
0
7.83167585e-11
-1.15651386e-20
9.25202221e-20
9.27240083e-11
5.78259711e-21
-2.81215141e-26
1.08962831e-10
5.78263466e-21
9.25208161e-20
1.27056757e-10
-5.78267766e-21
-9.25212146e-20
1.46964486e-10
0
-9.25215684e-20
1.68566292e-10
-5.7827651e-21
0
1.91652173e-10
1.15656214e-20
9.25224858e-20
2.1591343e-10
0
9.25229469e-20
2.40939398e-10
-1.73487764e-20
-9.25234111e-20
2.66221031e-10
-8.35196389e-27
9.25237896e-20
2.91162629e-10
-1.15660773e-20
-1.85048516e-19
3.15102343e-10
-5.78309879e-21
0
3.3734114e-10
-5.78315067e-21
1.85050087e-19
3.57178749e-10
-1.14247638e-26
-1.85050461e-19
3.73954017e-10
-5.78323666e-21
3.870861e-10
-1.24494781e-26
0
0
1.88652959e-12
-5.78241475e-21
-1.15648362e-20
5.70045055e-12
-5.78242115e-21
-2.31296861e-20
9.67601408e-12
1.1564856e-20
0
1.39916695e-11
0
-2.31297193e-20
1.88447138e-11
5.78244358e-21
4.62594837e-20
2.44349514e-11
5.78245398e-21
-4.62595314e-20
3.09680223e-11
5.78246495e-21
4.62595917e-20
3.86571339e-11
-9.92889909e-28
-4.62596639e-20
4.77229178e-11
-5.78249661e-21
-9.25194999e-20
5.83911067e-11
-5.78251667e-21
4.62598601e-20
7.08877211e-11
-1.87648799e-27
-9.25199534e-20
8.54314689e-11
-5.78256864e-21
0
1.02223136e-10
5.7825988e-21
-9.25205453e-20
1.21431888e-10
-3.32001551e-27
-6.8743934e-26
1.43178668e-10
-3.95700102e-27
0
1.675172e-10
0
1.85043627e-19
1.94413564e-10
0
5.47620226e-26
2.23725782e-10
5.78284373e-21
6.27980532e-26
2.55185395e-10
5.78291672e-21
-9.25234163e-20
2.88383445e-10
0
-9.25240135e-20
3.22763558e-10
-1.1566115e-20
-9.25246181e-20
3.57624786e-10
0
-9.2525312e-20
3.92136426e-10
1.15664175e-20
1.06214013e-25
4.25366051e-10
1.15665516e-20
-1.85052615e-19
4.563206e-10
-5.78335788e-21
1.85053535e-19
4.83998525e-10
-1.46664829e-26
5.55163377e-19
5.07449216e-10
-1.54384838e-26
5.25834275e-10
5.78349915e-21
0
0
2.35451647e-12
0
-1.1564838e-20
7.11674506e-12
0
0
1.20890318e-11
-5.78243104e-21
-2.31297114e-20
1.75030376e-11
0
2.31297329e-20
2.36157477e-11
-5.78244949e-21
4.62595138e-20
3.06890943e-11
-7.23280573e-28
-4.62595785e-20
3.89949145e-11
0
0
4.8817851e-11
5.78249114e-21
6.54039332e-27
6.04557849e-11
1.15650226e-20
9.25196987e-20
7.4217349e-11
-1.83027692e-27
4.62599775e-20
9.04160799e-11
5.78256677e-21
0
1.09360727e-10
-5.78260175e-21
-9.2520615e-20
1.31341281e-10
0
9.2520994e-20
1.56610477e-10
5.78268713e-21
-9.25215062e-20
1.85360861e-10
0
9.25219972e-20
2.17697956e-10
5.78280472e-21
0
2.53610715e-10
-5.7828754e-21
1.85046577e-19
2.92941187e-10
-8.00463922e-27
-9.2523969e-20
3.35356122e-10
5.78304911e-21
0
3.80324039e-10
5.78313213e-21
-9.25255244e-20
4.27101832e-10
-1.20665369e-26
-9.25262186e-20
4.74735129e-10
-5.78334304e-21
-9.25272603e-20
5.22076091e-10
-5.78344513e-21
9.25279033e-20
5.67821043e-10
-5.78354472e-21
0
6.10568194e-10
5.78362073e-21
0
6.48892908e-10
-5.7837233e-21
-1.85059839e-19
6.81434975e-10
5.78377553e-21
7.06989682e-10
-5.78385271e-21
0
5.78241585e-21
2.89877379e-12
5.78241585e-21
1.15648405e-20
8.76505329e-12
5.78242449e-21
0
1.49017482e-11
-5.78243394e-21
0
2.1606153e-11
-4.74518051e-28
2.3129748e-20
2.9209276e-11
-6.46881647e-28
0
3.80509303e-11
5.78246923e-21
4.62596265e-20
4.84869345e-11
-1.09773532e-27
-4.62597216e-20
6.08938231e-11
0
-4.62598153e-20
7.56703457e-11
0
9.76059113e-27
9.32350705e-11
0
-1.38780332e-19
1.14019563e-10
0
1.48418389e-26
1.38456347e-10
5.78263947e-21
-9.25210754e-20
1.66960859e-10
-4.11934125e-27
-9.25216024e-20
1.99906841e-10
0
0
2.37595044e-10
5.78281479e-21
9.25227855e-20
2.80215725e-10
-7.23006944e-27
9.25236995e-20
3.27806304e-10
-5.78300159e-21
9.25246623e-20
3.80206662e-10
0
-2.77576394e-19
4.37015786e-10
-1.17567604e-26
9.25266736e-20
4.97554814e-10
1.15666745e-20
0
5.60842578e-10
5.78345993e-21
-1.47581516e-25
6.25590266e-10
5.78359415e-21
-9.25298355e-20
6.90221322e-10
-1.15674984e-20
1.85061791e-19
7.52920982e-10
0
0
8.11716728e-10
0
0
8.64586581e-10
-2.49445918e-26
1.8506693e-19
9.0958727e-10
0
9.44989787e-10
0
0
0
3.53143239e-12
-7.31658619e-29
-1.15648436e-20
1.06826696e-11
-1.15648537e-20
2.31297092e-20
1.81794862e-11
0
-2.31297354e-20
2.63996604e-11
0
-2.31297622e-20
3.5765702e-11
5.78246293e-21
-4.62596047e-20
4.67148583e-11
5.78247943e-21
4.62596882e-20
5.97091227e-11
5.78249946e-21
0
7.524283e-11
-5.78252561e-21
-4.62599186e-20
9.38460123e-11
5.78255392e-21
4.62601124e-20
1.16082427e-10
-2.6422564e-27
-9.25205821e-20
1.42542035e-10
5.78263499e-21
9.25210725e-20
1.73826527e-10
5.78269274e-21
9.25215953e-20
2.1052649e-10
-5.78275289e-21
5.41625313e-26
2.53189189e-10
0
0
3.0227639e-10
5.78291843e-21
1.85047905e-19
3.5811249e-10
9.00862312e-27
-9.25250158e-20
4.20824433e-10
-5.78315138e-21
2.20335639e-25
4.90276418e-10
5.78327433e-21
1.28508951e-25
5.6600434e-10
-5.78343761e-21
0
6.47157042e-10
0
-9.25302267e-20
7.32453461e-10
5.78377677e-21
0
8.20165928e-10
5.78395952e-21
-9.25327738e-20
9.08139681e-10
-2.5201873e-26
-1.85068816e-19
9.93856516e-10
0
-1.85071466e-19
1.07454594e-09
-5.78450262e-21
0
1.14734057e-09
5.78462846e-21
1.85075763e-19
1.20946448e-09
-3.46802691e-26
1.25843549e-09
-3.62494408e-26
0
5.78241732e-21
4.26402184e-12
8.47226613e-29
1.15648465e-20
1.29056178e-11
0
-1.15648589e-20
2.19863904e-11
5.7824414e-21
4.62594987e-20
3.19813644e-11
-5.78245594e-21
-2.3129784e-20
4.34255391e-11
-5.78247245e-21
4.62596567e-20
5.68777873e-11
5.78249117e-21
4.62597667e-20
7.29333284e-11
-5.78251514e-21
-4.62598991e-20
9.22365525e-11
0
4.62600623e-20
1.15487543e-10
5.78258108e-21
2.82262789e-26
1.43440574e-10
-5.78262904e-21
-1.38781469e-19
1.76896655e-10
-5.78268468e-21
-4.6260782e-20
2.16686953e-10
1.73482471e-20
-1.85044641e-19
2.6364455e-10
0
-9.25231013e-20
3.18563021e-10
-5.78292388e-21
-1.85048249e-19
3.82140358e-10
-5.78304673e-21
-9.7972685e-26
4.54908067e-10
-5.78318145e-21
-9.25266512e-20
5.37146786e-10
0
1.39038239e-25
6.28791909e-10
-1.60190715e-26
9.25298107e-20
7.29335436e-10
5.78369201e-21
1.85063047e-19
8.3773383e-10
-5.78390567e-21
2.17409986e-25
9.52335164e-10
0
-1.8507083e-19
1.07084136e-09
-2.89901705e-26
-9.25372768e-20
1.19032186e-09
5.78462396e-21
-3.04264082e-25
1.30729259e-09
5.784869e-21
1.85082714e-19
1.41786794e-09
-3.97045824e-26
1.85085279e-19
1.51798293e-09
5.78531751e-21
7.4922056e-25
1.60367024e-09
0
1.67136299e-09
-5.78564901e-21
-1.85089976e-19
-5.78241828e-21
5.10580608e-12
-5.78241828e-21
-1.15648505e-20
1.54660393e-11
-1.15648639e-20
-2.31297315e-20
2.638361e-11
1.73473391e-20
-4.62595316e-20
3.84455702e-11
-5.7824637e-21
2.31298113e-20
5.23252651e-11
5.78248128e-21
4.62597182e-20
6.87340816e-11
0
4.62598494e-20
8.84318967e-11
-5.78253475e-21
0
1.12252501e-10
-2.31480906e-27
9.25204261e-20
1.41115474e-10
0
4.62604511e-20
1.76022933e-10
-3.76809229e-27
-1.38782214e-19
2.1805457e-10
-5.7827388e-21
-4.62611196e-20
2.68350149e-10
5.7828164e-21
9.25231294e-20
3.28075346e-10
0
0
3.983697e-10
-9.22950137e-27
0
4.80273149e-10
-5.78319211e-21
9.25268239e-20
5.74630348e-10
-5.78336391e-21
-1.46442356e-25
6.8197357e-10
-1.15671106e-20
-1.85061042e-19
8.02387932e-10
0
-9.25323752e-20
9.35366077e-10
-2.38270793e-26
9.25351787e-20
1.07966549e-09
0
9.25371858e-20
1.23318765e-09
0
0
1.392903e-09
0
-1.85085582e-19
1.55484795e-09
5.78526952e-21
-9.25458209e-20
1.71421778e-09
0
1.85095811e-19
1.8655712e-09
-5.78597335e-21
0
2.00314666e-09
-5.61083274e-26
1.85104932e-19
2.12126987e-09
0
2.21480863e-09
-5.78673491e-21
-1.85107756e-19
-5.78241927e-21
6.07227974e-12
-5.78241927e-21
-2.31297085e-20
1.84012114e-11
-1.15648695e-20
-2.31297439e-20
3.14210896e-11
-1.15649026e-20
0
4.58663232e-11
5.7824697e-21
-2.31298314e-20
6.25855723e-11
0
-2.31298915e-20
8.24683688e-11
5.78251915e-21
4.62599325e-20
1.06468538e-10
-5.78255285e-21
4.62601075e-20
1.3566096e-10
5.78259494e-21
-4.62603542e-20
1.71249955e-10
-5.78265114e-21
-4.62606264e-20
2.14555807e-10
-4.45625867e-27
-4.62610339e-20
2.67022058e-10
5.78279528e-21
-4.62614544e-20
3.30199734e-10
-5.78290343e-21
9.2523997e-20
4.0570589e-10
-8.9778352e-27
-9.25253127e-20
4.9516074e-10
5.78317026e-21
-1.22459089e-25
6.00092708e-10
0
9.25287456e-20
7.21811203e-10
0
9.25309126e-20
8.61246218e-10
-1.15676548e-20
2.18525789e-25
1.01875885e-09
0
5.19822459e-25
1.19392873e-09
5.78443876e-21
-1.85078924e-19
1.3853359e-09
-3.53502418e-26
1.85085688e-19
1.59036444e-09
-4.13068645e-26
4.07433498e-25
1.80506381e-09
-4.76656682e-26
1.85100117e-19
2.02410896e-09
-5.78619905e-21
0
2.24090003e-09
-5.78654061e-21
0
2.44783166e-09
0
0
2.63674025e-09
-7.32739778e-26
0
2.79950319e-09
5.7878069e-21
2.92872482e-09
-5.7880907e-21
1.34939209e-24
-5.78242031e-21
7.17010932e-12
5.78242018e-21
1.15648581e-20
2.17320336e-11
-3.85203687e-28
2.31297564e-20
3.7142157e-11
-5.78245705e-21
-2.29666162e-27
5.43191555e-11
-5.78247876e-21
3.12790077e-27
7.43119996e-11
0
-6.9389788e-20
9.82185698e-11
5.78253494e-21
9.25200742e-20
1.27249223e-10
-1.15651511e-20
0
1.62791589e-10
5.78262412e-21
9.2521104e-20
2.06386958e-10
-5.78268687e-21
1.38782677e-19
2.59749117e-10
0
0
3.24803797e-10
5.7828644e-21
-4.62619052e-20
4.03646031e-10
-5.78299572e-21
1.85050243e-19
4.98497686e-10
1.15662886e-20
-9.25268263e-20
6.11639512e-10
5.78332467e-21
0
7.45288529e-10
-1.67916399e-26
9.25310255e-20
9.01432058e-10
-2.07728343e-26
-9.25337881e-20
1.08161059e-09
-5.78416475e-21
2.71460013e-25
1.28665753e-09
-5.78454294e-21
3.25217234e-25
1.51639218e-09
-3.72923279e-26
-9.2544316e-20
1.76929046e-09
-5.78546619e-21
9.25491428e-20
2.04217192e-09
5.78595367e-21
9.25538671e-20
2.32995511e-09
-5.78658723e-21
0
2.62554541e-09
-6.95550618e-26
0
2.9199222e-09
0
1.85137917e-19
3.2024821e-09
-8.72739885e-26
0
3.46166451e-09
-1.15779471e-20
1.69193709e-24
3.68583177e-09
-5.7894619e-21
3.86430761e-09
-5.78985362e-21
0
5.78242121e-21
8.39873287e-12
5.78242121e-21
1.15648624e-20
2.54675423e-11
-4.32004985e-28
-9.08710771e-28
4.35778129e-11
-7.44272233e-28
-2.31298245e-20
6.38526398e-11
1.15649736e-20
2.31298897e-20
8.75703195e-11
5.78251542e-21
-2.31299714e-20
1.16096427e-10
-1.15651032e-20
0
1.50965413e-10
1.15651975e-20
4.62603982e-20
1.93920661e-10
0
4.62607707e-20
2.46925589e-10
-1.15654678e-20
-9.25222944e-20
3.12229944e-10
0
4.62617085e-20
3.92349806e-10
0
9.25247064e-20
4.9005987e-10
-5.78309892e-21
0
6.08403604e-10
5.78327315e-21
9.25283021e-20
7.50561016e-10
-5.78351674e-21
0
9.19706191e-10
5.78379918e-21
1.85067381e-19
1.11879957e-09
5.78414091e-21
-9.2537459e-20
1.35029331e-09
-5.78454917e-21
-9.25409381e-20
1.61579003e-09
0
9.25467823e-20
1.91560334e-09
-5.78558752e-21
9.25517589e-20
2.24826717e-09
0
-2.77671938e-19
2.61004605e-09
1.15737925e-20
0
2.99451863e-09
0
0
3.39233263e-09
-5.78842244e-21
-1.85153875e-19
3.79123819e-09
5.78924171e-21
1.85167539e-19
4.17650221e-09
-1.12643703e-25
0
4.53176898e-09
1.15815995e-20
1.85186815e-19
4.84034882e-09
0
5.08679689e-09
-5.7919941e-21
1.85194167e-19
5.78242227e-21
9.76253337e-12
-5.78242227e-21
-6.44510386e-28
2.9617855e-11
-5.78244457e-21
2.31297843e-20
5.07376347e-11
5.78246765e-21
0
7.44802654e-11
0
2.3129919e-20
1.02401628e-10
-1.71521463e-27
-2.31300072e-20
1.36190916e-10
-2.32389203e-27
0
1.7775132e-10
-5.78262143e-21
-1.8561674e-26
2.29251716e-10
1.15653809e-20
-4.62609361e-20
2.93202044e-10
-5.78277957e-21
3.15036951e-26
3.72494962e-10
5.7828839e-21
9.25241851e-20
4.70399967e-10
5.78301434e-21
1.38788626e-19
5.90630665e-10
-5.78321159e-21
-1.85055436e-19
7.37248106e-10
5.78342167e-21
-9.25300942e-20
9.14580181e-10
-5.78371646e-21
0
1.12716054e-09
0
1.85073772e-19
1.37932972e-09
-5.78448431e-21
0
1.67485882e-09
0
4.08980376e-25
2.01655931e-09
-5.78559989e-21
1.85105652e-19
2.40564652e-09
-5.66726278e-26
9.25597894e-20
2.84101892e-09
5.78705834e-21
1.85135102e-19
3.31850744e-09
-5.78796525e-21
9.25759769e-20
3.8301861e-09
0
-9.25838809e-20
4.36389575e-09
-5.79013974e-21
9.2593836e-20
4.90314192e-09
0
0
5.42754807e-09
5.79221793e-21
-2.67369593e-24
5.91400887e-09
0
0
6.33856473e-09
5.79415526e-21
6.67881251e-09
-5.79507459e-21
1.85241916e-19
-5.78242347e-21
1.12585825e-11
5.7824233e-21
-7.07807967e-28
3.41740803e-11
0
4.62595964e-20
5.86102972e-11
-1.15649474e-20
4.62597253e-20
8.61973323e-11
-5.78250471e-21
-2.31299398e-20
1.18812235e-10
-5.78254202e-21
-2.31300479e-20
1.58512213e-10
-5.78258903e-21
0
2.07632647e-10
5.78264916e-21
0
2.6887594e-10
0
2.74230982e-26
3.4540085e-10
0
0
4.40868379e-10
-7.90726485e-27
9.25249534e-20
5.59531884e-10
-5.78312059e-21
0
7.06251445e-10
0
9.25292697e-20
8.86405847e-10
5.78358097e-21
0
1.10594146e-09
0
-9.253597e-20
1.37115821e-09
0
-1.85080721e-19
1.68822133e-09
0
0
2.06281269e-09
5.78540819e-21
-9.25521264e-20
2.49960363e-09
1.15724527e-20
-9.25597606e-20
3.00134157e-09
-5.78715025e-21
9.25685678e-20
3.56781973e-09
5.78810894e-21
-9.25793863e-20
4.19475765e-09
0
2.09003852e-24
4.87268277e-09
-1.20562896e-25
9.26022521e-20
5.58607357e-09
0
1.85228683e-19
6.31297157e-09
-5.79362551e-21
0
7.02537546e-09
-1.84785913e-25
1.85274214e-19
7.69071962e-09
-2.05473456e-25
-3.7058208e-19
8.27456864e-09
5.79758679e-21
8.74431108e-09
0
0
5.78242446e-21
1.28783516e-11
0
0
3.91107315e-11
1.15649005e-20
-1.15649038e-20
6.71540656e-11
5.7824785e-21
0
9.89459844e-11
-1.15650243e-20
-2.31299769e-20
1.36728673e-10
0
2.31300874e-20
1.82980613e-10
0
4.62604735e-20
2.40542395e-10
-1.15653427e-20
0
3.12737872e-10
0
-4.6261366e-20
4.03491306e-10
1.15657338e-20
0
5.17431799e-10
0
4.6262918e-20
6.59995081e-10
-1.15664099e-20
9.25280322e-20
8.3743049e-10
-5.78345518e-21
0
1.05685904e-09
0
-9.25343924e-20
1.3263585e-09
-2.54908414e-26
-9.25391479e-20
1.6545641e-09
-5.78463349e-21
-9.25443693e-20
2.05001797e-09
-5.78524799e-21
-9.25511227e-20
2.52101923e-09
-1.15721133e-20
0
3.07507161e-09
-5.78698932e-21
-9.25682793e-20
3.7173909e-09
0
-9.25794737e-20
4.44952232e-09
5.78932298e-21
1.85186708e-19
5.26773877e-09
0
-1.85213015e-19
6.16122918e-09
-5.79251182e-21
-2.77867134e-19
7.11066875e-09
-1.76316736e-25
9.26395841e-20
8.08727874e-09
-1.15926387e-20
1.85311247e-19
9.05292838e-09
0
1.85336755e-19
9.96188181e-09
0
0
1.07645874e-08
-2.87966265e-25
1.14133431e-08
5.80333271e-21
0
5.78242512e-21
1.46070545e-11
-1.15648506e-20
0
4.43832034e-11
-6.09752077e-28
-1.29426233e-27
7.62935207e-11
5.78248316e-21
-2.31299069e-20
1.12617712e-10
-1.58111115e-27
5.18185732e-27
1.56006481e-10
-1.15651297e-20
4.62602475e-20
2.09414327e-10
-3.05701234e-27
-4.6260596e-20
2.76260262e-10
-5.7826956e-21
4.62609831e-20
3.60587552e-10
0
-4.62615733e-20
4.6722321e-10
0
4.62623559e-20
6.01932965e-10
-1.15661675e-20
-4.62632127e-20
7.71564385e-10
0
9.25291099e-20
9.8415185e-10
-1.15671407e-20
-9.25324407e-20
1.24898992e-09
0
0
1.57671128e-09
1.15687487e-20
-9.25418519e-20
1.97886195e-09
0
-4.34095157e-25
2.46740773e-09
-1.15714157e-20
0
3.05458895e-09
0
-1.85131872e-19
3.75158028e-09
0
8.73669259e-25
4.56708753e-09
0
9.25929512e-20
5.50601441e-09
5.79069292e-21
-1.85217678e-19
6.56644306e-09
-5.79274161e-21
1.5936384e-24
7.73685327e-09
-1.82218141e-25
-1.85293545e-19
8.9940272e-09
5.79717416e-21
9.26702474e-20
1.03010802e-08
5.79976435e-21
0
1.16067737e-08
-5.80272517e-21
0
1.28472403e-08
5.80469475e-21
6.15545055e-24
1.39510978e-08
-3.68514295e-25
1.48480942e-08
0
3.70969572e-19
0
1.64231602e-11
5.78242602e-21
-8.62013871e-28
4.99261882e-11
5.78245564e-21
1.36381545e-27
8.59167952e-11
-5.78248807e-21
-2.31299138e-20
1.27048351e-10
-1.66887789e-27
2.31300241e-20
1.76420554e-10
-5.78257387e-21
2.31301548e-20
2.37516394e-10
-1.15652668e-20
0
3.14404542e-10
-5.78271492e-21
-4.62611658e-20
4.11945939e-10
5.78282006e-21
-4.62617239e-20
5.36007068e-10
5.78295076e-21
0
6.93677469e-10
-5.78313081e-21
4.62638461e-20
8.93482812e-10
5.78336742e-21
4.62650569e-20
1.14557554e-09
0
0
1.46188224e-09
-2.46206197e-26
0
1.85616834e-09
0
0
2.34371544e-09
5.78527187e-21
0
2.941158e-09
5.7861802e-21
0
3.66578209e-09
0
8.11461818e-25
4.53394955e-09
-9.04796216e-26
-9.25881133e-20
5.56000795e-09
-5.79030944e-21
0
6.75390627e-09
-1.44316487e-25
-9.26261032e-20
8.11725119e-09
5.79474683e-21
-1.93425018e-24
9.63948068e-09
-5.79754525e-21
-2.78030208e-19
1.12941993e-08
0
1.85411083e-19
1.30356943e-08
5.80416309e-21
-1.85472409e-19
1.4796492e-08
-1.16155662e-20
1.85521543e-19
1.64882399e-08
-1.16223244e-20
-1.85570421e-19
1.80080639e-08
5.81421228e-21
1.92515043e-08
-1.74518023e-20
0
0
1.82982262e-11
0
-1.15648835e-20
5.56530906e-11
-5.7824571e-21
-1.15649188e-20
9.58743315e-11
-5.78249073e-21
0
1.42015477e-10
-1.73092163e-27
-2.31300286e-20
1.97660003e-10
0
-6.93905507e-20
2.66865901e-10
-3.39421856e-27
4.62607373e-20
3.54416403e-10
-5.78272979e-21
-9.25225141e-20
4.66082041e-10
-5.78284218e-21
9.25239053e-20
6.08899326e-10
-5.78299143e-21
9.25257126e-20
7.91465872e-10
5.78317822e-21
4.62640515e-20
1.02424418e-09
-1.51223214e-26
9.25311602e-20
1.31985563e-09
5.78377797e-21
9.25353797e-20
1.69333181e-09
-5.78425291e-21
0
2.16226452e-09
3.53994828e-26
0
2.7467508e-09
5.7855711e-21
0
3.4691533e-09
-1.15731621e-20
-7.18400945e-25
4.35314605e-09
0
9.25946291e-25
5.42260734e-09
5.78948013e-21
-9.25988218e-20
6.70018705e-09
-1.15828295e-20
-9.26186433e-20
8.20343648e-09
-1.67635606e-25
0
9.94014856e-09
1.15936114e-20
9.26777785e-20
1.19034832e-08
0
-1.85418715e-19
1.40661783e-08
5.80413976e-21
-9.27431993e-20
1.63745677e-08
0
-7.87655373e-24
1.87426243e-08
1.16271434e-20
-1.85656569e-19
2.10500647e-08
0
0
2.31488928e-08
0
2.48817169e-08
-6.51124133e-25
0
1.15648529e-20
2.01971466e-11
5.78242646e-21
-1.15648852e-20
6.14567381e-11
0
1.15649203e-20
1.05979884e-10
5.78249074e-21
-4.62598666e-20
1.57239331e-10
5.78253085e-21
4.62600971e-20
2.19328366e-10
-5.78258386e-21
2.31301839e-20
2.96916559e-10
0
2.19576434e-26
3.95554951e-10
0
0
5.22001927e-10
-6.46703598e-27
0
6.84578919e-10
-5.78301362e-21
4.62630224e-20
8.93559267e-10
-5.7832238e-21
-9.25285357e-20
1.16158523e-09
-1.58832497e-26
-9.25320145e-20
1.50409602e-09
0
0
1.93973205e-09
-2.8495753e-26
0
2.49065554e-09
0
0
3.18269514e-09
-5.7858794e-21
-9.25602779e-20
4.04520125e-09
-5.78699371e-21
1.85145733e-19
5.11037894e-09
-5.78843478e-21
0
6.41200215e-09
-1.14421761e-25
-9.26079852e-20
7.98345035e-09
-5.79247036e-21
1.85271464e-19
9.8541723e-09
-5.7955417e-21
0
1.20433303e-08
-5.79889734e-21
9.27059275e-20
1.45514786e-08
-5.80347417e-21
9.27497673e-20
1.735473e-08
1.74249474e-20
9.27992561e-20
2.03964412e-08
-5.81393725e-21
1.8570529e-19
2.35728532e-08
0
0
2.67247644e-08
-2.64222939e-21
0
2.9640897e-08
-5.24282412e-21
3.20800478e-08
-1.10413697e-20
0
-5.78242654e-21
2.20789035e-11
-5.78242654e-21
-8.95839589e-28
6.72116178e-11
-6.65541669e-28
-1.15649197e-20
1.16014253e-10
5.78249019e-21
-2.31299322e-20
1.72388053e-10
5.78253202e-21
2.3130054e-20
2.40950295e-10
5.782581e-21
2.31302096e-20
3.27004609e-10
-5.78265086e-21
4.62608133e-20
4.36905651e-10
1.15654762e-20
4.62613345e-20
5.78456047e-10
1.15657082e-20
4.62621066e-20
7.61349724e-10
-5.78302232e-21
9.25262098e-20
9.97670041e-10
1.20402269e-26
4.62644455e-20
1.30244273e-09
0
9.2532381e-20
1.69423106e-09
-5.78390224e-21
0
2.19574184e-09
-2.96070787e-26
9.2543645e-20
2.834384e-09
-1.15702521e-20
0
3.64268441e-09
-5.31969454e-26
-6.47852299e-25
4.65841739e-09
0
-1.85154347e-19
5.92423198e-09
0
1.13017748e-24
7.48651914e-09
0
-9.26187818e-20
9.39315116e-09
0
0
1.16901265e-08
5.79680268e-21
9.26882834e-20
1.44137708e-08
0
-1.85465775e-19
1.75810888e-08
5.80650968e-21
9.27898048e-20
2.11820369e-08
5.81241215e-21
1.85708533e-19
2.51651447e-08
-5.51492128e-25
2.7876193e-19
2.94162235e-08
-8.43930795e-21
0
3.37375344e-08
-1.42644314e-20
1.86137409e-19
3.78342148e-08
-5.84710925e-21
4.13297083e-08
-2.34212673e-20
0
-5.78242604e-21
2.38978455e-11
-5.78242604e-21
1.15648819e-20
7.27777766e-11
5.78245518e-21
1.15649167e-20
1.25732015e-10
-5.78248883e-21
2.31299199e-20
1.87087668e-10
0
5.69271246e-27
2.61985461e-10
-1.15651577e-20
-2.31301811e-20
3.56367482e-10
-5.7826417e-21
9.25215471e-20
4.77404613e-10
-4.68363323e-27
4.62613041e-20
6.33969745e-10
5.78284676e-21
4.04822021e-26
8.37176991e-10
-1.15660296e-20
1.38789254e-19
1.10100193e-09
5.78322172e-21
-4.62643712e-20
1.4429903e-09
-1.62540771e-26
1.0162992e-25
1.8850506e-09
-2.20679427e-26
0
2.45430759e-09
-2.9902672e-26
-9.25437782e-20
3.18396592e-09
0
-5.00606919e-25
4.11409267e-09
-1.73584295e-20
9.25641373e-20
5.29216933e-09
5.78745257e-21
9.2579505e-20
6.7731847e-09
5.78906606e-21
1.19660502e-24
8.61894748e-09
5.79128806e-21
9.26275699e-20
1.08961853e-08
5.79419308e-21
2.08434757e-24
1.3672925e-08
0
1.85408826e-19
1.70110501e-08
5.80277046e-21
2.7827993e-19
2.09578819e-08
0
9.28299968e-20
2.55349032e-08
-8.45626626e-21
2.78734727e-19
3.07149961e-08
-5.20147576e-21
1.86009397e-19
3.63951396e-08
-8.39868904e-21
0
4.23590645e-08
-1.75514718e-20
0
4.82195607e-08
-1.75932551e-20
5.3381354e-08
-1.17558491e-20
0
1.15648501e-20
2.56054872e-11
1.15648501e-20
0
7.80063327e-11
-6.04673279e-28
-1.29948053e-27
1.34871175e-10
-5.78248423e-21
2.31299043e-20
2.00936799e-10
1.15650402e-20
-2.3130011e-20
2.81849781e-10
5.78256724e-21
0
3.84173652e-10
-5.78263272e-21
0
5.15879895e-10
5.78271317e-21
-4.62612419e-20
6.86899652e-10
-1.15656592e-20
3.88197374e-26
9.09763202e-10
5.78298065e-21
5.30959511e-26
1.20035028e-09
0
-9.25284909e-20
1.57876815e-09
-1.57024685e-26
-4.62660976e-20
2.07036437e-09
-2.14312096e-26
1.85073972e-19
2.70686479e-09
0
-9.25437855e-20
3.52760174e-09
-3.97408747e-26
-9.255228e-20
4.58075775e-09
-5.7860696e-21
9.25648668e-20
5.92449092e-09
0
0
7.62772587e-09
0
9.26026396e-20
9.77028904e-09
5.79143633e-21
-9.2629616e-20
1.24419435e-08
1.1589056e-20
9.26711407e-20
1.57397463e-08
5.79885145e-21
-9.27155391e-20
1.97629649e-08
0
0
2.46056341e-08
0
9.28664746e-20
3.0345792e-08
-1.7461973e-20
-2.78908085e-19
3.70251498e-08
-1.74974469e-20
0
4.46092186e-08
-5.84822313e-21
0
5.29248341e-08
-5.86584307e-21
0
6.15340525e-08
-1.76626442e-20
6.95109741e-08
-1.77293324e-20
-3.74493011e-19
0
2.71527505e-11
0
2.31297471e-20
8.27463735e-11
5.48177247e-28
0
1.43165381e-10
9.59210163e-28
2.3129881e-20
2.13525535e-10
5.78251167e-21
0
2.99943223e-10
1.15651067e-20
-6.83850532e-27
4.09562775e-10
-5.7826135e-21
0
5.51108899e-10
1.15653754e-20
0
7.35515239e-10
-5.78279832e-21
0
9.76663384e-10
1.15658799e-20
-4.62626284e-20
1.29226423e-09
-5.78314283e-21
4.62640035e-20
1.70490965e-09
5.78340053e-21
4.62654713e-20
2.24331549e-09
0
-9.25360101e-20
2.94376478e-09
-5.78429608e-21
0
3.85173982e-09
-5.78498993e-21
-9.25511287e-20
5.0236992e-09
5.78588362e-21
0
6.52890721e-09
-5.78714928e-21
9.25781234e-20
8.45115816e-09
1.1577732e-20
9.26018853e-20
1.08901677e-08
-5.79131925e-21
-9.26283573e-20
1.39623548e-08
-5.79450519e-21
0
1.78007589e-08
5.79856693e-21
-9.27169438e-20
2.25539921e-08
-5.80461201e-21
9.27992334e-20
2.83844876e-08
-1.42236187e-20
2.78675352e-19
3.54660484e-08
-8.38000251e-21
-7.41540796e-24
4.39793497e-08
-1.16750515e-20
0
5.40886608e-08
-1.17150781e-20
0
6.58399597e-08
-1.76531836e-20
0
7.89176512e-08
-2.36797227e-20
9.19790244e-08
-1.78820831e-20
1.88225899e-19
5.78242223e-21
2.84925136e-11
5.78242223e-21
1.15648665e-20
8.6852811e-11
0
-1.02368232e-27
1.50357901e-10
-5.78246876e-21
-4.62597035e-20
2.24457279e-10
0
4.27126644e-27
3.15682439e-10
1.73476066e-20
2.31300507e-20
4.31693632e-10
0
0
5.81888357e-10
0
-2.28554273e-26
7.78100763e-10
5.78274542e-21
-9.25228587e-20
1.03543344e-09
0
4.34205388e-26
1.37326237e-09
-1.1566112e-20
0
1.81645445e-09
5.78328609e-21
-4.62649506e-20
2.39683395e-09
5.7836151e-21
-9.25339193e-20
3.15492776e-09
-5.78406691e-21
0
4.14200728e-09
0
-9.25475208e-20
5.42242493e-09
-4.61119257e-26
-1.85117168e-19
7.0762158e-09
-1.15734666e-20
-1.85146875e-19
9.20191155e-09
-8.6823302e-26
-1.85187568e-19
1.19195294e-08
-1.1904385e-25
9.26209602e-20
1.53738332e-08
0
0
1.97383658e-08
-2.24080814e-25
1.85430762e-19
2.52216347e-08
-8.42776317e-21
-1.8558381e-19
3.20784018e-08
-8.39287357e-21
-9.29025806e-20
4.0630879e-08
-1.16460916e-20
-9.30588962e-20
5.13046897e-08
-1.16800871e-20
1.86635499e-19
6.46761742e-08
-1.75980443e-20
0
8.14544203e-08
-1.1812322e-20
0
1.01988129e-07
-2.3859675e-20
1.24482169e-07
-1.81209668e-20
-1.8974476e-19
0
2.9582282e-11
-5.78242012e-21
-1.1564859e-20
9.01946392e-11
0
1.1564878e-20
1.56216356e-10
0
0
2.33371881e-10
-5.78248348e-21
0
3.28535622e-10
-5.78251378e-21
-2.31299822e-20
4.4979594e-10
-2.09349996e-27
0
6.0711103e-10
5.7826122e-21
0