/*--------------------------------*- C++ -*----------------------------------*\
| =========                 |                                                 |
| \\      /  F ield         | foam-extend: Open Source CFD                    |
|  \\    /   O peration     | Version:     4.1                                |
|   \\  /    A nd           | Web:         http://www.foam-extend.org         |
|    \\/     M anipulation  |                                                 |
\*---------------------------------------------------------------------------*/
FoamFile
{
    version     2.0;
    format      ascii;
    class       volScalarField;
    location    "0.65";
    object      p;
}
// * * * * * * * * * * * * * * * * * * * * * * * * * * * * * * * * * * * * * //

dimensions      [0 2 -2 0 0 0 0];

internalField   nonuniform List<scalar> 
35840
(
79.3667729
64.7224733
55.6574943
51.3371376
48.3862515
46.0469137
44.2068793
42.6919416
41.3660833
40.1590336
39.0334189
37.9663262
36.9430806
35.9540042
34.9923041
34.0528999
33.1318261
32.2259033
31.3325533
30.4496847
29.5756076
28.7089783
27.8487575
26.9941746
26.1446963
25.2999999
24.459946
23.6245526
72.4867714
62.0810367
54.8954581
51.1155927
48.3466237
46.0641199
44.2440702
42.7392424
41.4153795
40.2053319
39.0751062
38.0031622
36.9752396
35.9818557
35.0163007
34.0734939
33.1494306
32.2408923
31.3452632
30.4604068
29.5845935
28.7164506
27.8549177
26.9992074
26.1487737
25.3032838
24.4625902
23.6267038
69.296174
60.5320371
54.1781651
50.6764256
48.0918808
45.9351418
44.1872519
42.725196
41.4267976
40.2308361
39.1077856
38.0389599
37.0117623
36.0177415
35.0508118
34.1062373
33.1801935
32.2695511
31.3717356
30.4846359
29.6065399
28.7360853
27.8722224
27.0141795
26.1614311
25.3136689
24.4707735
23.6327858
67.679183
59.3437269
53.4454063
50.2189523
47.8263541
45.8086459
44.1487915
42.7389871
41.4707558
40.2909137
39.1752126
38.1085366
37.0805391
36.0841411
35.1140605
34.1659927
33.2363183
32.3219861
31.4204362
30.5295456
29.6475833
28.7731763
27.9052733
27.0431133
26.1861956
25.3342499
24.4872064
23.6451635
66.5785768
58.3758168
52.7711366
49.7868002
47.5649188
45.6755044
44.107059
42.7570859
41.5260032
40.3679535
39.2638122
38.2020772
37.1748844
36.1767923
35.2035577
34.2515037
33.3173663
32.398277
31.4917567
30.5957066
29.7083953
28.8284471
27.9548137
27.0867508
26.2237927
25.365723
24.5125433
23.6644382
65.7810223
57.6492679
52.2153145
49.3952127
47.3036425
45.52148
44.0378179
42.7496561
41.5613759
40.4319421
39.3460878
38.2952616
37.273822
36.2779327
35.3044663
34.3504973
33.413251
32.4901658
31.5789475
30.6776027
29.784466
28.8982063
28.0178151
27.1425983
26.2721573
25.4063634
24.5453264
23.6893578
65.1819644
57.0911697
51.7559832
49.0448715
47.0516195
45.3561517
43.9453886
42.7146211
41.5696184
40.4719634
39.4088491
38.3737964
37.3628485
36.3734734
35.4035143
34.4507484
33.5128975
32.5877428
31.6732216
30.7674965
29.8690136
28.9765251
28.0891012
27.2061354
26.3273343
25.452698
24.5824905
23.7172006
64.7156783
56.6492053
51.3751262
48.7382529
46.8184686
45.191336
43.8407279
42.6601126
41.5554137
40.4893957
39.4506456
38.4340073
37.4366744
36.4570542
35.4937259
34.5450262
33.6090923
32.6840064
31.7679184
30.8591472
29.9562542
29.058085
28.1638059
27.2729192
26.3852655
25.5010103
24.6206172
23.7448061
64.3440075
56.2933402
51.0594043
48.4739494
46.6086253
45.034778
43.7330994
42.595217
41.5266113
40.4903918
39.4758228
38.4785212
37.4964103
36.5285246
35.5739541
34.6314373
33.6994161
32.776196
31.8600876
30.9495267
30.0431599
29.1399122
28.2390372
27.340149
26.4432361
25.548657
24.657117
23.769623
64.0431988
56.0034201
50.7969993
48.2479719
46.4233405
44.8911475
43.6291955
42.5273919
41.4905344
40.481624
39.4901439
38.5120955
37.5458194
36.5907302
35.6462399
34.7113441
33.7846784
32.8646836
31.949763
31.0384089
30.129307
29.221424
28.314074
27.4069685
26.5002458
25.5944787
24.6906554
23.7901297
63.7973926
55.7654183
50.5785936
48.056105
46.2623509
44.7629736
43.5333825
42.4619917
41.4528629
40.4686625
39.498814
38.5394375
37.5890612
36.6472895
35.7137003
34.7874195
33.8671701
32.9514416
32.0386496
31.1272721
30.2159723
29.3037034
28.3897968
27.4740327
26.5566905
25.6385724
24.7209921
23.8057228
63.5955302
55.5693556
50.3969852
47.8943774
46.1244846
44.6512627
43.4482372
42.4025881
41.4176794
40.4557504
39.5060106
38.5645279
37.6298553
36.701643
35.7795092
34.862599
33.9496259
33.039038
32.1291758
31.2184221
30.3053394
29.3887946
28.4680724
27.5429745
26.6138988
25.6818865
24.7486259
23.8163982
63.4295921
55.4078687
50.2465014
47.7591957
46.0081239
44.5560681
43.3751057
42.3514291
41.3877867
40.4459766
39.5149215
38.5905355
37.6712884
36.7567713
35.8465425
34.9396734
34.0347789
33.1301719
32.2240265
31.3145356
30.4000629
29.4792921
28.5513723
27.616055
26.673814
25.7259299
24.7745182
23.8224799
63.2935453
55.2753386
50.1225962
47.6473873
45.9114905
44.4768703
43.3145013
42.3098041
41.3650092
40.4415011
39.5278957
38.6199009
37.715837
36.8151628
35.917303
35.0211793
34.1252222
33.2275197
32.3259803
31.4184961
30.5031116
29.5782006
28.6426522
27.6960599
26.7388991
25.7726705
24.7999724
23.8244665
63.1826964
55.1673429
50.0215523
47.5561614
45.8327814
44.4128069
43.2663747
42.2783126
41.350432
40.4437529
39.5465953
38.6544442
37.7654348
36.87885
35.993931
35.1093848
34.223383
33.3337017
32.4378772
31.5333731
30.6177659
29.6889541
28.7453942
27.7863593
26.8122027
25.824591
24.8266546
23.8229942
63.0932792
55.0802974
49.9402608
47.4830461
45.7702299
44.3628121
43.2302936
42.2570542
41.344578
40.45358
39.5721152
38.6954519
37.8215323
36.9494466
36.078217
35.2062894
34.3315162
33.451277
32.5626241
31.6624475
30.7476739
29.8155101
28.8637405
27.8910776
26.8975483
25.8848675
24.8567249
23.8188796
63.0221818
55.0112155
49.8760617
47.425826
45.7221269
44.3256978
43.2055577
42.245755
41.3475302
40.4713563
39.6050658
38.7437376
37.8851372
37.0281596
36.1715962
35.3136078
34.4516809
33.5827239
32.7031912
31.8092372
30.8969197
29.9624752
29.0026854
28.0153469
26.9998285
25.9576641
24.8930707
23.8132249
62.9667632
54.9575431
49.8266284
47.3824872
45.6868223
44.3001975
43.1912704
42.2438517
41.3590141
40.4970516
39.6456293
38.7996812
37.9568237
37.1157781
36.2751202
35.4327241
34.5856866
33.7303868
32.8625744
31.9774946
31.0700797
30.1352421
29.1683109
28.1656443
27.1254226
26.0485719
24.9396725
23.8075995
62.9247277
54.917045
49.7898839
47.3511718
45.6627168
44.2849897
43.1863824
42.2505454
41.3784494
40.5302793
39.6935961
38.8632381
38.0367203
37.2126398
36.3893981
35.5646122
34.7349972
33.8963746
33.0437043
32.1711528
31.2722392
30.3401164
29.3680582
28.3502278
27.2827756
26.165251
25.002159
23.8043182
62.8940377
54.8877256
49.763941
47.3301428
45.6482529
44.2787103
43.1897197
42.2648328
41.4049887
40.5703307
39.7483762
38.9339317
38.1244826
37.3185753
36.5145098
35.7097157
34.9005805
34.0823905
33.2492769
32.3941871
31.5089326
30.584397
29.6110189
28.5796915
27.483219
26.3184116
25.0887011
23.8068816
62.8728559
54.8677752
49.7470609
47.3177604
45.6419075
44.2799606
43.1999965
42.2855387
41.4375494
40.6161886
39.8090009
39.0108411
38.219254
37.4328336
36.6498904
35.8677853
35.0826975
34.2894766
33.4814698
32.6503406
31.7859414
30.8763415
29.9081837
28.8676173
27.7420966
26.5233638
25.21167
23.8210954
62.8595072
54.8555345
49.7376273
47.3124661
45.6421907
44.2873071
43.2158456
42.3113451
41.4748283
40.6665397
39.874129
39.0925865
38.31962
37.5539978
36.7941927
36.0376769
35.2806227
34.5176509
33.7415043
32.9426491
32.108859
31.2248977
30.2725251
29.2312057
28.0800702
26.801911
25.389723
23.8566097
62.8524627
54.8494727
49.7341321
47.3127775
45.6476382
44.299313
43.2358454
42.3408043
41.5153231
40.7197987
39.9420591
39.1773208
38.4235709
37.6799023
36.9451426
36.217119
35.4922975
34.7654228
34.0290122
33.2726751
32.4822773
31.6390405
30.7188166
29.6920199
28.5251108
27.1852417
25.649806
23.9253191
62.8503412
54.84818
49.7351574
47.3172979
45.6568463
44.3145625
43.2585278
42.3723671
41.5573717
40.7741438
40.0107567
39.2627426
38.5284882
37.8075746
37.0994085
36.402475
35.7139382
35.0291901
34.3411654
33.639341
32.90836
32.1262807
31.2626045
30.2765728
29.1167913
27.7243965
26.043551
24.055543
62.8518493
54.850374
49.7394157
47.3247192
45.6684822
44.3316644
43.2824128
42.4044323
41.5992023
40.8275693
40.0779079
39.3461435
38.6311732
37.9332272
37.2525248
36.58855
35.9396553
35.3025711
34.6715959
34.037299
33.3845438
32.6896283
31.9164927
31.0122217
29.9033821
28.4944724
26.6755801
24.3577275
62.855798
54.8549117
49.7457586
47.3338293
45.681287
44.3492886
43.3060588
42.4354006
41.6389975
40.8779628
40.141007
39.424503
38.7279419
38.0523344
37.398922
36.7685182
36.1611831
35.5757927
35.0092347
34.4549709
33.9005661
33.3235932
32.6851676
31.9201564
30.9252438
29.5455861
27.5948803
24.8483781
62.8611772
54.860793
49.7531557
47.3435484
45.6941239
44.3662108
43.3281124
42.4637392
41.6749777
40.9232077
40.1974832
39.4946415
38.8148038
38.1598325
37.5321255
36.9340714
36.3678772
35.8353371
35.3372689
34.8723119
34.4345356
34.0088628
33.5621986
33.0262567
32.2649106
31.0136539
28.8505797
24.9601369
62.8671482
54.8671698
49.7607311
47.3529571
45.7060097
44.3813547
43.3473654
42.4880559
41.7054966
40.9613087
40.244863
39.5534317
38.8877357
38.2504677
37.6451856
37.0759171
36.5472085
36.0642287
35.6327139
35.2585355
34.9464955
34.6974792
34.5017237
34.3232939
34.0629287
33.4673823
31.840227
26.4884572
72.6460034
62.2039171
54.9682413
51.1397818
48.3351264
46.027785
44.1910693
42.6768565
41.3496103
40.1405019
39.014005
37.9473665
36.9254368
35.9381369
34.9783994
34.0409581
33.1217362
32.2175029
31.3256641
30.4441263
29.5712075
28.7055747
27.8461992
26.9923197
26.1434111
25.2991576
24.459426
23.6242404
64.9262762
59.5320297
54.6111604
51.3373275
48.6666171
46.3539854
44.4595211
42.8884858
41.5159136
40.2716559
39.1189982
38.0331772
36.9967893
35.9981876
35.0293683
34.0844716
33.1590237
32.249529
31.3532097
30.4678373
29.5916275
28.7231703
27.861378
27.0054429
26.1548034
25.309114
24.4682167
23.6321135
61.6858917
58.1827317
54.1898633
51.1197301
48.5855514
46.3778178
44.5244051
42.962977
41.5906514
40.3426722
39.1846662
38.0934449
37.052096
36.0489918
35.0760781
34.1274289
33.1984959
32.2857178
31.3862671
30.4978803
29.6187494
28.7474485
27.8828822
27.0242436
26.1709787
25.3227558
24.479436
23.6410437
60.1094152
57.0267947
53.5133053
50.7234428
48.3785554
46.3112766
44.5418178
43.0235583
41.6723758
40.4328226
39.275629
38.1812979
37.1351646
36.1267214
35.1484382
34.1946112
33.2607468
32.343256
31.4392535
30.5464153
29.662882
28.7871913
27.9182279
27.0551821
26.1975138
25.3449199
24.4973027
23.6547372
59.0034925
56.0276527
52.828719
50.30928
48.1382923
46.1947678
44.5138194
43.0533512
41.7378628
40.5191564
39.3726372
38.2822644
37.2359464
36.224886
35.2426139
34.2840595
33.3450824
32.4222688
31.5128044
30.6143817
29.725135
28.843592
27.9686356
27.0994686
26.235582
25.3767229
24.5228613
23.6741547
58.1961205
55.282606
52.262627
49.9215464
47.8810407
46.0396397
44.4407268
43.0411953
41.7685547
40.5792685
39.4521656
38.3737169
37.3339042
36.3255518
35.3433548
34.3830432
33.4410106
32.5141846
31.5999603
30.6961554
29.8009806
28.9130175
28.0311968
27.1547772
26.2833207
25.4166652
24.5548909
23.6982833
57.5889763
54.7110465
51.7908281
49.5665629
47.6268273
45.8702991
44.342619
42.9996479
41.7700129
40.6128548
39.5092975
38.4475539
37.4190869
36.4179626
35.4398394
34.4811616
33.5388402
32.6101689
31.6927948
30.7847085
29.8842428
28.9900753
28.1012253
27.2170462
26.337212
25.4616949
24.5907343
23.7247968
57.1157114
54.2582161
51.3988288
49.2542148
47.3910029
45.7025224
44.234031
42.9405487
41.7508428
40.6252944
39.546403
38.5035462
37.489198
36.4982989
35.5272187
34.5729529
33.6328293
32.7044492
31.7856825
30.8746805
29.9698977
29.0701138
28.1744491
27.2823714
26.3936937
25.5085583
24.6274088
23.7509481
56.7383629
53.8941947
51.0746406
48.9850594
47.1787813
45.5438987
44.1239921
42.8729483
41.7191261
40.6232968
39.5686707
38.5453427
37.5464461
36.5675094
35.6053978
34.6575014
33.7214506
32.7950711
31.8763946
30.9636885
30.0554974
29.1506817
28.2484509
27.3483863
26.4504519
25.5549856
24.6626756
23.7745168
56.433103
53.5981614
50.8058157
48.755101
46.9914336
45.3987978
44.0186866
42.803698
41.6815697
40.6130169
39.58151
38.5775141
37.594548
36.6285024
35.6765586
34.7363621
33.805736
32.8826427
31.9652034
31.0517429
30.1408458
29.2314137
28.322716
27.4144307
26.5066715
25.5999934
24.6953711
23.7941469
56.183842
53.3555131
50.5825015
48.5600587
46.828748
45.2695639
43.9220598
42.7375954
41.6432332
40.5994063
39.5895612
38.6042815
37.6372612
36.6845743
35.7435672
34.8120166
33.8878352
32.9690322
32.0537402
31.1402714
30.2271864
29.3133708
28.3981095
27.4811501
26.5627469
25.6436839
24.7252615
23.8092444
55.9793016
53.1558765
50.3971042
48.3958151
46.6894965
45.1570425
43.8364054
42.6778542
41.6077971
40.586288
39.5965896
38.6292387
37.6779516
36.7388473
35.8093141
34.8871513
33.9702623
33.0566132
32.1442637
31.2314296
30.3165692
29.3984798
28.4763978
27.5500892
26.6199247
25.6869264
24.7527698
23.8197301
55.8112774
52.9916002
50.2436471
48.2586181
46.5719898
45.0611924
43.7629201
42.6265313
41.577845
40.5765144
39.6055427
38.6553202
37.719482
36.7940904
35.8764783
34.9643728
34.0555777
33.1479261
32.2393122
31.32776
30.4115269
29.4892242
28.5599486
27.6234118
26.680057
25.7311429
24.778772
23.8258415
55.6735874
52.8568546
50.1173635
48.1451696
46.4743946
44.9814425
43.7020421
42.5848189
41.5550883
40.5721234
39.6186441
38.6848428
37.7642087
36.852678
35.947453
35.0461106
34.1462731
33.245552
32.341575
31.4320638
30.5149529
29.5885397
28.6516555
27.7038475
26.7455544
25.7782499
24.8045168
23.8280155
55.5614229
52.7470652
50.014378
48.0525841
46.3948648
44.9168993
43.6536841
42.5532702
41.5405589
40.5744864
39.637497
38.7195681
37.8140108
36.9165899
36.0243242
35.1345805
34.2447282
33.3520675
32.453853
31.5473758
30.6300994
29.6998399
28.754988
27.794761
26.8194645
25.8307283
24.8316619
23.8268659
55.4709297
52.6585371
49.9314682
47.978319
46.3316006
44.8664776
43.6173956
42.531964
41.5347569
40.5844271
39.6631718
38.7607613
37.8703185
36.9874157
36.1088596
35.2317644
34.3531828
33.4700193
32.5790449
31.6769762
30.7606229
29.8271023
28.8741213
27.9003214
26.9056634
25.8918078
24.8624106
23.8232298
55.3989304
52.5882032
49.8658922
47.9201073
46.2828684
44.8289769
43.5924676
42.5206188
41.5377571
40.6023115
39.696274
38.8092315
37.9341292
37.0663538
36.2024914
35.3393759
34.4736964
33.60189
32.7201325
31.8244048
30.910644
29.9749879
29.0141251
28.025757
27.0091565
25.9657701
24.8997541
23.8182783
55.3427354
52.5334515
49.8152645
47.8758971
46.2469997
44.8031224
43.5779995
42.5186694
41.5492844
40.6281122
39.7369884
38.8653531
38.0060142
37.1541962
36.3062753
35.458803
34.6080856
33.7500375
32.8801348
31.9934518
31.0847978
30.1489764
29.1812022
28.1777027
27.1365124
26.0584108
24.9478645
23.8137203
55.3000139
52.4920049
49.777466
47.8438033
46.2223822
44.787587
43.5729406
42.5253179
41.5687649
40.6614479
39.7850999
38.92908
38.0861067
37.2512851
36.4208232
35.5910246
34.7578238
33.9165876
33.0620118
32.1880994
31.2882485
30.3554943
29.3829695
28.3646544
27.2964717
26.1777192
25.0126861
23.8121027
55.2687035
52.4618385
49.7505801
47.8220704
46.2074494
44.7810033
43.5761177
42.5395699
41.5953562
40.7016028
39.8400169
38.9999407
38.1740654
37.3574518
36.5462173
35.736489
34.9238877
34.10326
33.2684901
32.4123788
31.5266274
30.6019995
29.6287631
28.5975562
27.5008226
26.3349363
25.1028857
23.817219
55.2469502
52.4411227
49.7328484
47.8090459
46.2006727
44.7819722
43.5862562
42.5602526
41.6279667
40.7475562
39.9007749
39.0770149
38.2690322
37.4719452
36.6818928
35.8949484
35.1065422
34.3111077
33.5017736
32.6700884
31.8058232
30.8969416
29.9298934
28.8904836
27.7656185
26.5462874
25.2318022
23.8355659
55.2330673
52.4281857
49.7226431
47.8031652
46.2005601
44.7890741
43.6019873
42.5860361
41.6652884
40.7979984
39.9660313
39.1589203
38.3695907
37.5933453
36.8264988
36.0652535
35.3050571
34.5401484
33.7630959
32.9643058
32.1315311
31.2494765
30.2997089
29.2612478
28.1123953
26.8347145
25.4194162
23.8782376
55.2255086
52.4214896
49.7184521
47.8029488
46.2056616
44.800868
43.6218737
42.6154676
41.7058214
40.8513417
40.0340819
39.2438067
38.4737269
37.7194802
36.9777513
36.2451187
35.5173556
34.7888706
34.0520729
33.2966014
32.5084119
31.6687798
30.7534266
29.7322087
28.5702264
27.2323428
25.6921821
23.954161
55.2228548
52.4196153
49.7188642
47.8070002
46.2145675
44.8159182
43.6444439
42.6470002
41.7479016
40.9057621
40.1028893
39.3293683
38.5788152
37.8473667
37.1323023
36.4308831
35.7396183
35.0536228
34.3658145
33.6658338
32.9385999
32.1624578
31.3070218
30.3310138
29.1811947
27.7946299
26.1055096
24.0881484
55.2238341
52.4212862
49.7225886
47.8140025
46.2259257
44.8328324
43.6682203
42.6790324
41.7897558
40.9592516
40.1701358
39.4128905
38.6816477
37.9732026
37.2856638
36.6173162
35.9658995
35.3279381
34.697828
34.0664829
33.4193118
32.7332639
31.9727592
31.0846626
29.9939552
28.6003194
26.7764105
24.4208107
55.2273209
52.4253726
49.7284667
47.8227428
46.238481
44.8502852
43.6917642
42.7099655
41.8295661
41.0096952
40.2333112
39.491346
38.7785293
38.0924454
37.4322384
36.7975463
36.1878588
35.6019215
35.0368546
34.4866937
33.9399165
33.3752205
32.7545333
32.0120414
31.0405312
29.6696671
27.6868065
24.8595434
55.2323239
52.4308779
49.7354714
47.832148
46.2511024
44.8670561
43.713725
42.7382677
41.8655518
41.0549739
40.2898401
39.5615477
38.8654585
38.2000135
37.5655219
36.9632138
36.3947605
35.8618957
35.3658107
34.9060018
34.477987
34.0686486
33.6470573
33.1451617
32.4190837
31.1548933
28.8417074
24.3955
55.238009
52.4369596
49.742734
47.8413052
46.262812
44.8820731
43.7328973
42.762548
41.8960663
41.0930904
40.3372453
39.6203627
38.9384033
38.2906384
37.6785386
37.1049778
36.5739809
36.0906964
35.6613362
35.2928872
34.992157
34.7632933
34.6020559
34.4809696
34.3106074
33.820743
32.2394494
25.8408294
69.7288293
60.92041
54.4826622
50.8782976
48.2018015
45.9690638
44.1607599
42.6546021
41.3272315
40.1146185
38.9841914
37.9145497
36.8908691
35.9030079
34.9436888
34.0073876
33.0897868
32.1874654
31.2976894
30.4182689
29.5474575
28.6838812
27.8264847
26.9744891
26.1273573
25.2847642
24.4465691
23.6127895
61.972598
58.4679687
54.447094
51.3229877
48.7283098
46.4652533
44.5656011
42.9685449
41.5707247
40.3055147
39.1365334
38.0389463
36.9945494
35.9907228
35.0186807
34.0719751
33.1456916
32.2360175
31.3399558
30.4551301
29.5796567
28.7120571
27.8511957
26.9962304
26.1465739
25.3018598
24.4619126
23.626719
58.7300222
57.2348694
54.2376788
51.3000998
48.8118914
46.6348348
44.7448575
43.1223492
41.6992387
40.4142061
39.2293555
38.1192928
37.0651758
36.0535621
35.0750619
34.1228459
33.1917358
32.277729
31.377698
30.4891788
29.6102282
28.7393285
27.8753201
27.0173488
26.1648252
25.3173885
24.474875
23.6372874
57.1739965
56.1122232
53.630051
50.9926644
48.6975362
46.6602738
44.8440272
43.2476715
41.8300745
40.5418494
39.3492236
38.229642
37.1660447
36.1456329
35.1591327
34.1996801
33.261997
32.3419484
31.4362751
30.5424005
29.658293
28.7823714
27.9134357
27.0506141
26.193319
25.341209
24.4941534
23.6521988
56.0712178
55.1109781
52.9622438
50.6200465
48.5061307
46.590648
44.8582608
43.3128161
41.9238489
40.65098
39.4650938
38.346584
37.2806337
36.2559106
35.2640075
34.2985846
33.3546725
32.428292
31.5162434
30.6159587
29.7253934
28.8429501
27.9674211
27.0979422
26.2339525
25.3751569
24.5214894
23.6730759
55.259106
54.3585758
52.397486
50.2477042
48.2684657
46.4534015
44.8013857
43.3149177
41.9662669
40.7206912
39.5528868
38.4455373
37.3856554
36.3633735
35.3713289
34.4039063
33.4566415
32.5258971
31.6086936
30.7026014
29.8056658
28.916354
28.0335155
27.1563489
26.28437
25.4173792
24.5554251
23.6987649
54.6452089
53.7779016
51.9187271
49.8929832
48.0183284
46.2884187
44.7076719
43.277752
41.9715612
40.7574441
39.6127815
38.5220056
37.4735173
36.4586231
35.4708583
34.5052597
33.5578414
32.625316
31.704954
30.7945038
29.8921419
28.9964415
28.1063506
27.2211719
26.3405418
25.4644032
24.5929716
23.7266926
54.1649178
53.3158245
51.5175708
49.5756532
47.780642
46.1195943
44.5984362
43.2185184
41.9525075
40.7700225
39.6500461
38.5782505
37.5440385
36.5395816
35.5591093
34.5981809
33.6531993
32.7211663
31.7995648
30.8862994
29.9796679
29.0783482
28.181393
27.2882244
26.3986233
25.5127091
24.6309086
23.7539103
53.781186
52.943668
51.1848079
49.3003004
47.5643271
45.9576852
44.4856875
43.1489355
41.9193926
40.7669749
39.6714928
38.6194155
37.600829
36.6085095
35.6371935
34.6828324
33.7421211
32.8122745
31.8909287
30.9760982
30.0661658
29.1598872
28.2564031
27.3552493
26.4563587
25.5600496
24.6669973
23.7781864
53.4705002
52.6408401
50.9085981
49.0643015
47.3723301
45.8086804
44.3771389
43.0772092
41.8800205
40.7553356
39.6832822
38.6507608
37.6482736
36.6689845
35.7079668
34.7614375
33.8262851
32.899858
31.9798778
31.0644116
30.1518775
29.2410677
28.3311795
27.4218434
26.5131413
25.6056067
24.700201
23.7982612
53.2167646
52.3926372
50.6791636
48.8639457
47.205267
45.675688
44.2773775
43.0086761
41.839877
40.7403811
39.6903158
38.6767402
37.6903608
36.7245497
35.7745674
34.8367758
33.9081592
32.9861148
32.0683752
31.1529917
30.2383554
29.3232395
28.4068529
27.4888898
26.5695698
25.6496539
24.7304294
23.8136564
53.0085833
52.1885031
50.4887835
48.6952318
47.0621755
45.5598047
44.1889027
42.9467296
41.8027903
40.7260411
39.696434
38.7010068
37.7305124
36.7783911
35.8399651
34.9116324
33.9903767
33.0735564
32.1588315
31.2441565
30.3278176
29.4084953
28.4853456
27.5580782
26.6270246
25.6931811
24.7582095
23.824381
52.8376051
52.0205851
50.3312818
48.5543309
46.9413932
45.461038
44.112954
42.8934674
41.7713773
40.7151859
39.704588
38.7264909
37.7715852
36.8332743
35.9068423
34.9886285
34.0755258
33.1647639
32.2538388
31.340512
30.4228665
29.4993943
28.5691072
27.631655
26.6874373
25.737683
24.7844781
23.8307166
52.6975078
51.8828717
50.2016969
48.437817
46.8410277
45.378784
44.0499427
42.8500618
41.747334
40.7098372
39.7169818
38.7554874
37.8159131
36.8915525
35.9775749
35.0701826
34.1660945
33.2623223
32.3560965
31.4448777
30.526424
29.5989087
28.6610732
27.7123954
26.7532629
25.7851134
24.8105099
23.8331111
52.5833624
51.770637
50.0959866
48.3426748
46.7591467
45.3120853
43.9997299
42.8170259
41.7316621
40.7113413
39.7351956
38.7897359
37.8653532
36.955185
36.054232
35.1584971
34.2644512
33.3688002
32.468405
31.5602957
30.6417565
29.7104735
28.7647388
27.8036911
26.8275735
25.8379701
24.8379653
23.8321605
52.4912177
51.6800662
50.0107942
48.2662482
46.6938652
45.2597897
43.9618109
42.7943973
41.7248309
40.7204979
39.7602795
38.8304823
37.9213185
37.0257474
36.1385693
35.2555402
34.3728251
33.4867401
32.5936655
31.690055
30.772535
29.8380859
28.8843047
27.9097389
26.9142693
25.8994941
24.8690346
23.8286533
52.4178201
51.6079996
49.9432736
48.2061778
46.643376
45.2206368
43.9354288
42.7818576
41.7268882
40.7376523
39.7928213
38.878521
37.9847962
37.1044282
36.232006
35.3630177
34.493274
33.6186283
32.734867
31.8377081
30.9229013
29.9864378
29.0248793
28.0358091
27.0183906
25.9739788
24.9066763
23.8236616
52.3604224
51.551755
49.8909602
48.1603402
46.6059514
45.1933027
43.919643
42.7788114
41.737536
40.762759
39.8329916
38.9342192
38.0563484
37.1920091
36.335593
35.4823185
34.627618
33.7668282
32.8950404
32.0070673
31.0975257
30.1610587
29.1927281
28.1886046
27.1465626
26.067237
24.9550008
23.8187096
52.3166507
51.5090036
49.8516766
48.1267967
46.5799338
45.1764224
43.913372
42.7844364
41.7561809
40.795422
39.8805699
38.997521
38.1361008
37.288831
36.4499463
35.6144237
34.777334
33.9334756
33.0771667
32.2021511
31.3016289
30.3684553
29.3955712
28.3767358
27.3076221
26.1872825
25.0198283
23.8159923
52.2844119
51.4776833
49.8234645
48.1037532
46.5637234
45.1686001
43.9154189
42.7977178
41.7819662
40.8349197
39.9349549
39.0679502
38.2237141
37.3947288
36.5751472
35.7597828
34.9434056
34.1203065
33.2840036
32.4270448
31.5409286
30.6162136
29.6429167
28.6113482
27.5135399
26.3454133
25.1095812
23.8185582
52.2618301
51.4559387
49.8045371
48.0895308
46.555769
45.1684168
43.9244897
42.8174713
41.8137938
40.8802269
39.9951811
39.1445926
38.3183325
37.5089495
36.7106311
35.9181519
35.1261083
34.3283968
33.517799
32.6856253
31.8214448
30.9129855
29.946359
28.9068716
27.7807281
26.5580688
25.2373637
23.8317586
52.2472053
51.4420818
49.7932484
48.0825485
46.554563
45.1744371
43.939208
42.8423621
41.8503577
40.9300364
40.0599144
39.2260667
38.4185387
37.6300737
36.8550493
36.0883872
35.3247247
34.5577922
33.7798446
32.9810813
32.149069
31.2682462
30.3197158
29.2817114
28.1313145
26.8485039
25.4227407
23.86511
52.2389879
51.434569
49.7880758
48.0813139
46.5586429
45.1852177
43.95814
42.8709442
41.8901664
40.9827695
40.1274524
39.3105241
38.5223208
37.7559312
37.0061196
36.2682076
35.5371905
34.8070133
34.0698285
33.3151333
32.528751
31.6916886
30.7790508
29.7594427
28.5957098
27.2494014
25.6899819
23.9206539
52.2357641
51.4319984
49.7876126
48.0844219
46.5666022
45.1993348
43.9798245
42.9016846
41.9315639
41.036607
40.1957632
39.3956643
38.6270572
37.8835411
37.1604952
36.4539541
35.7596951
35.0724373
34.384938
33.6868205
32.9630089
32.1916778
31.3417556
30.370231
29.2200153
27.8215131
26.0975439
24.0156048
52.2362547
51.4330865
49.7905684
48.0905668
46.577107
45.2154087
44.0027971
42.9329915
41.9727863
41.0895504
40.2625379
39.4787799
38.7295446
38.0091031
37.3136866
36.6403925
35.986291
35.3476117
34.7187462
34.0908165
33.4495259
32.7719418
32.021961
31.1442466
30.0584115
28.6543522
26.7837555
24.3287933
52.2393211
51.436674
49.7957797
48.0985588
46.5889169
45.2321236
44.0256307
42.9632787
42.0120284
41.1394967
40.3252769
39.556852
38.8260938
38.1280758
37.4600907
36.8206355
36.2086123
35.6226157
35.0600076
34.5154333
33.9782669
33.4281036
32.8269798
32.1060042
31.1491464
29.7658484
27.7124688
24.7386469
52.2439722
51.4417597
49.8022267
48.1073394
46.6009128
45.2482714
44.0469887
42.991029
42.0475235
41.1843402
40.3814169
39.626704
38.91271
38.2353776
37.5931915
36.9862908
36.4158562
35.8836564
35.3914784
34.9400891
34.5271137
34.1424647
33.7583535
33.3066461
32.6333648
31.3728078
28.9147844
23.8965687
52.2493784
51.4475069
49.8090491
48.1160064
46.6121287
45.2627934
44.0656799
43.014866
42.0776396
41.2220975
40.4284941
39.6852143
38.9853687
38.3257404
37.7059973
37.1279684
36.5952835
36.1133245
35.6893119
35.3323609
35.0532365
34.862946
34.7682946
34.7582817
34.7632514
34.4927421
33.0265619
25.5519317
68.502761
60.1088504
54.0784237
50.6829222
48.1301561
45.9713404
44.1932913
42.6920888
41.3584454
40.1351746
38.9933772
37.9135798
36.881688
35.8876523
34.9239996
33.9848958
33.0656976
32.1626919
31.2729051
30.3939596
29.5239677
28.6614498
27.8052722
26.9545973
26.1088435
25.2676504
24.4308493
23.5984339
60.7966078
57.6991926
54.1147274
51.2067831
48.7319783
46.5419717
44.665642
43.0621866
41.6482063
40.3648937
39.1787392
38.0665351
37.0105788
35.99799
35.0195012
34.0681888
33.1387191
32.2269315
31.3295573
30.4440152
29.5682681
28.7007235
27.8401604
26.9856719
26.1366208
25.2926012
24.4534053
23.6189929
57.5769071
56.5029775
53.982372
51.2825218
48.9169061
46.8112166
44.9331546
43.2856338
41.8292176
40.5132929
39.3018652
38.1702975
37.0997245
36.0758648
35.0883456
34.1295464
33.1936833
32.2762885
31.3738867
30.4837599
29.60378
28.7322925
27.8680354
27.0100767
26.1577661
25.3106943
24.4686574
23.6316244
56.0480883
55.417472
53.4236629
51.0334068
48.866219
46.9033367
45.096079
43.4658499
42.0048221
40.6770002
39.4506347
38.3037671
37.2192948
36.1833666
35.1853943
34.2174557
33.2734932
32.3487921
31.4396707
30.5432534
29.6572965
28.7800653
27.910246
27.0468803
26.189313
25.337148
24.4902089
23.6485031
54.9616358
54.4354535
52.7796501
50.691598
48.7099892
46.8699018
45.1448512
43.5613382
42.1237845
40.8067917
39.5836238
38.4351105
37.3462678
36.3045686
35.3001055
34.3253268
33.3743895
32.4426802
31.5265457
30.6231043
29.7300958
28.8457705
27.9688104
27.0982688
26.2335207
25.3742194
24.5202552
23.6717162
54.1560563
53.6912897
52.2261802
50.3350189
48.4902825
46.750324
45.104467
43.5779147
42.1780329
40.8859145
39.6790747
38.5405644
37.4570777
36.4174356
35.412656
34.435803
33.481464
32.5453234
31.6239248
30.7145157
29.8149256
28.9234755
28.0389133
27.1603647
26.2872914
25.4194508
24.5568565
23.6997352
53.5436948
53.1134494
51.7514916
49.9863544
48.2474912
46.5927708
45.0178246
43.5470735
42.188448
40.9265489
39.7419361
38.61944
37.547061
36.5147319
35.5143086
34.5394414
33.5851406
32.6474022
31.7229948
30.8093286
29.9043571
29.0065062
28.1146248
27.2279485
26.3460661
25.4688861
24.5965968
23.729622
53.062496
52.6511942
51.3504572
49.6700601
48.0117793
46.4262148
44.9108232
43.4898763
42.1709964
40.9402041
39.7798733
38.6761306
37.6179424
36.5960744
35.6030535
34.633024
33.6813565
32.7443141
31.8188605
30.9025488
29.9934441
29.0900709
28.1913796
27.2967245
26.4058405
25.5188158
24.6360546
23.7582297
52.6768568
52.2775438
51.0161635
49.3935345
47.7948345
46.2639367
44.7978273
43.4201469
42.1377283
40.9369015
39.8009764
38.7169277
37.6743938
36.6647308
35.6809667
34.7176314
33.7703782
32.8356746
31.9106297
30.9928992
30.080626
29.172406
28.2672733
27.3646918
26.4645465
25.5671238
24.673078
23.78338
52.3640311
51.9728185
50.7378739
49.1554926
47.6010505
46.1133581
44.6879162
43.3472998
42.0974239
40.9244407
39.812027
38.7476224
37.7212808
36.7247403
35.7513678
34.7959614
33.8543686
32.9231892
31.9996165
31.0813559
30.166582
29.2539233
28.3424661
27.4317654
26.5218517
25.6132242
24.7068222
23.8039703
52.1082686
51.7227316
50.5063249
48.9529131
47.4318542
45.9783864
44.5863961
43.2772805
42.056047
40.9084527
39.8181916
38.772878
37.7627702
36.7798144
35.8175692
34.8709837
33.9360053
33.0092855
32.08803
31.1699283
30.253127
29.3362333
28.4183415
27.4990669
26.5785739
25.6575868
24.7373696
23.8196699
51.8983029
51.5169001
50.3140189
48.7821072
47.286663
45.8604945
44.4961045
43.2137755
42.0176601
40.893038
39.8234287
38.7964296
37.8023452
36.833191
35.882593
34.9455431
34.0179937