/*--------------------------------*- C++ -*----------------------------------*\
| =========                 |                                                 |
| \\      /  F ield         | foam-extend: Open Source CFD                    |
|  \\    /   O peration     | Version:     4.1                                |
|   \\  /    A nd           | Web:         http://www.foam-extend.org         |
|    \\/     M anipulation  |                                                 |
\*---------------------------------------------------------------------------*/
FoamFile
{
    version     2.0;
    format      ascii;
    class       surfaceScalarField;
    location    "0.65";
    object      phi;
}
// * * * * * * * * * * * * * * * * * * * * * * * * * * * * * * * * * * * * * //

dimensions      [0 3 -1 0 0 0 0];

internalField   nonuniform List<scalar> 
102656
(
0.000395261008
5.3026636e-05
5.17123562e-05
0.000281609476
5.8261305e-05
5.53902262e-05
0.000200387923
4.23600868e-05
3.88614647e-05
0.000148889481
2.74481161e-05
2.40503247e-05
0.000117042056
1.73743091e-05
1.4473115e-05
9.6824616e-05
1.12262949e-05
8.99114471e-06
8.35594163e-05
7.39824254e-06
5.86695658e-06
7.46479452e-05
4.89542329e-06
4.01604735e-06
6.84786951e-05
3.2496219e-06
2.9196279e-06
6.40361023e-05
2.17066829e-06
2.27192449e-06
6.07097844e-05
1.4530119e-06
1.87330621e-06
5.81352375e-05
9.65693806e-07
1.60885347e-06
5.60884367e-05
6.28888624e-07
1.41791283e-06
5.44274845e-05
3.92384403e-07
1.26856856e-06
5.30595169e-05
2.23937401e-07
1.14403114e-06
5.19210124e-05
1.02845777e-07
1.03565967e-06
5.09662459e-05
1.57565955e-08
9.39011045e-07
5.01608448e-05
-4.62129893e-08
8.51615249e-07
4.94779425e-05
-8.90664086e-08
7.71969975e-07
4.88956416e-05
-1.16787789e-07
6.99089816e-07
4.83955596e-05
-1.32148366e-07
6.3223156e-07
4.79619579e-05
-1.3720586e-07
5.70808694e-07
4.75811639e-05
-1.33570045e-07
5.14365198e-07
4.72411783e-05
-1.2256225e-07
4.62548813e-07
4.69314286e-05
-1.05344024e-07
4.15094652e-07
4.66426205e-05
-8.30028846e-08
3.71811879e-07
4.63666536e-05
-5.66020712e-08
3.32569775e-07
-2.72013801e-08
2.97283548e-07
4.60965721e-05
0.000461998933
2.77115371e-05
6.33161652e-05
0.00039285345
5.22457917e-05
7.5160994e-05
0.000323886509
5.01981236e-05
6.11289024e-05
0.000266758876
4.04824814e-05
4.40932667e-05
0.000223838904
3.04903019e-05
2.98039779e-05
0.000193123813
2.23553846e-05
1.95860005e-05
0.000171286052
1.62962809e-05
1.29397215e-05
0.000155542426
1.18584267e-05
8.78062175e-06
0.000143955944
8.61580503e-06
6.22029909e-06
0.000135214995
6.26060972e-06
4.65100823e-06
0.000128448556
4.55072624e-06
3.6687247e-06
0.000123087306
3.30138331e-06
3.02556178e-06
0.000118755822
2.37972531e-06
2.58064883e-06
0.000115201061
1.69212198e-06
2.25502472e-06
0.000112248172
1.1732477e-06
2.00358062e-06
0.000109772715
7.78124874e-07
1.80018009e-06
0.000107683106
4.75970416e-07
1.62939684e-06
0.000105909386
2.45664425e-07
1.48184458e-06
0.000104396216
7.25544053e-08
1.35155192e-06
0.000103098726
-5.37851375e-08
1.23448905e-06
0.000101979692
-1.40939982e-07
1.12782829e-06
0.000101007466
-1.94548346e-07
1.02957056e-06
0.000100154625
-2.19033564e-07
9.38305908e-07
9.93971329e-05
-2.18102175e-07
8.53033815e-07
9.87137844e-05
-1.95055146e-07
7.73061116e-07
9.80858517e-05
-1.53006052e-07
6.97937346e-07
9.74968648e-05
-9.50208418e-08
6.27406993e-07
-2.4191346e-08
5.61368778e-07
9.69324871e-05
0.000447769711
1.52546789e-05
6.46871468e-05
0.000388238301
3.58422578e-05
7.59349421e-05
0.000335580998
4.066772e-05
6.21877055e-05
0.000291761035
3.76332383e-05
4.6669205e-05
0.000257077904
3.18680166e-05
3.33054146e-05
0.000230707307
2.56791147e-05
2.30468663e-05
0.000210911618
2.01552574e-05
1.59367115e-05
0.000195899833
1.56038866e-05
1.12663247e-05
0.000184285431
1.19766458e-05
8.25356205e-06
0.000175098105
9.1374218e-06
6.31051386e-06
0.000167680974
6.93742298e-06
5.03043449e-06
0.000161592544
5.23825707e-06
4.15155714e-06
0.000156530317
3.92356702e-06
3.5183867e-06
0.000152280029
2.90118662e-06
3.04122503e-06
0.000148684909
2.10090658e-06
2.66746222e-06
0.000145626772
1.47091635e-06
2.36534733e-06
0.000143013924
9.73829316e-07
2.11499086e-06
0.000140773327
5.82976647e-07
1.90328648e-06
0.000138845414
2.79352734e-07
1.7211155e-06
0.000137180469
4.93014119e-08
1.5618608e-06
0.00013573616
-1.17207122e-07
1.4205771e-06
0.000134475926
-2.27806707e-07
1.29349391e-06
0.000133367733
-2.88593455e-07
1.17775458e-06
0.000132383181
-3.04762922e-07
1.07121397e-06
0.000131496934
-2.8109025e-07
9.72283675e-07
0.00013068636
-2.22253672e-07
8.79822492e-07
0.000129931328
-1.33039343e-07
7.93051822e-07
-1.84517724e-08
7.11483795e-07
0.000129214105
0.000440472587
9.95907924e-06
6.48230122e-05
0.000375874019
2.46435169e-05
7.57973073e-05
0.000324700908
3.07171117e-05
6.11237181e-05
0.000286197526
3.0857813e-05
4.52788064e-05
0.000257839818
2.81111119e-05
3.21146118e-05
0.00023717417
2.41844559e-05
2.21603055e-05
0.000221931119
2.00763281e-05
1.53219803e-05
0.000210341677
1.63108073e-05
1.08825213e-05
0.000201200387
1.30662004e-05
8.05173551e-06
0.000193741311
1.03545411e-05
6.24195668e-06
0.000187495263
8.12695822e-06
5.05651392e-06
0.000182176654
6.31468946e-06
4.24217708e-06
0.000177604403
4.84686672e-06
3.64895177e-06
0.000173654236
3.65913762e-06
3.19221707e-06
0.00017023333
2.69722842e-06
2.8245862e-06
0.00016726749
1.91767541e-06
2.51908128e-06
0.000164694642
1.28696179e-06
2.25971703e-06
0.000162461406
7.79909519e-07
2.0363041e-06
0.000160521136
3.77898095e-07
1.84172616e-06
0.000158832609
6.7222966e-08
1.67060646e-06
0.000157359046
-1.62314295e-07
1.5186721e-06
0.000156067369
-3.18565473e-07
1.38243643e-06
0.000154927623
-4.07904355e-07
1.2590575e-06
0.000153912538
-4.35909855e-07
1.14623354e-06
0.000152997238
-4.07923696e-07
1.04213378e-06
0.000152159086
-3.29442882e-07
9.45342043e-07
0.000151377619
-2.06375378e-07
8.54804437e-07
-4.51752184e-08
7.69777903e-07
0.000150634565
0.000437878162
7.06266702e-06
6.50182491e-05
0.000368457064
1.77996792e-05
7.62649348e-05
0.000314730237
2.34040544e-05
6.10398832e-05
0.000276414127
2.47888016e-05
4.43851206e-05
0.000250113259
2.3694469e-05
3.07175102e-05
0.000232368806
2.13285116e-05
2.06003965e-05
0.000220183746
1.84561656e-05
1.38052228e-05
0.000211416746
1.55620206e-05
9.51578652e-06
0.000204718041
1.28883384e-05
6.8765676e-06
0.000199291625
1.05220045e-05
5.25895271e-06
0.000194694241
8.47646744e-06
4.24787499e-06
0.000190691292
6.73334237e-06
3.58429666e-06
0.00018716004
5.26096541e-06
3.11715395e-06
0.000184032118
4.02404682e-06
2.76301413e-06
0.00018126332
2.98891731e-06
2.47711007e-06
0.000178819178
2.12608099e-06
2.23573756e-06
0.000176668769
1.41111784e-06
2.02625347e-06
0.000174782503
8.2461961e-07
1.84155632e-06
0.000173131589
3.51607143e-07
1.67720625e-06
0.000171688061
-1.92688953e-08
1.53002018e-06
0.000170424955
-2.96658694e-07
1.39745106e-06
0.00016931642
-4.87352296e-07
1.27732313e-06
0.000168337729
-5.96971115e-07
1.16775861e-06
0.00016746538
-6.3068136e-07
1.06712102e-06
0.000166677185
-5.93746193e-07
9.74018118e-07
0.00016595239
-4.91949734e-07
8.87301828e-07
0.000165271846
-3.3189189e-07
8.06061592e-07
-1.21144192e-07
7.29610754e-07
0.000164618205
0.000436606273
5.27559199e-06
6.51808011e-05
0.000364324189
1.34334794e-05
7.66482835e-05
0.000308255078
1.8240703e-05
6.12324615e-05
0.000268854794
2.00668144e-05
4.41222705e-05
0.000242611941
1.98822457e-05
3.00550755e-05
0.000225730442
1.85117982e-05
1.96982122e-05
0.00021486129
1.65340269e-05
1.2791291e-05
0.000207593945
1.43490336e-05
8.48033154e-06
0.000202408284
1.21943655e-05
5.87963477e-06
0.00019841196
1.01858818e-05
4.33244658e-06
0.000195113707
8.3705046e-06
3.40421664e-06
0.000192261163
6.76016485e-06
2.82572193e-06
0.000189732281
5.34918855e-06
2.44065973e-06
0.00018746997
4.1237134e-06
2.16264534e-06
0.000185446365
3.06707875e-06
1.94544309e-06
0.000183644692
2.16282103e-06
1.76493347e-06
0.000182050876
1.39621474e-06
1.60872042e-06
0.000180650235
7.54925508e-07
1.47033486e-06
0.00017942656
2.2910972e-07
1.34617292e-06
0.000178362195
-1.88851605e-07
1.23394787e-06
0.00017743838
-5.04843906e-07
1.13200071e-06
0.000176635587
-7.23528078e-07
1.0389695e-06
0.00017593392
-8.48966742e-07
9.53662696e-07
0.000175313469
-8.85237913e-07
8.75008062e-07
0.000174754643
-8.36976236e-07
8.02056664e-07
0.000174238529
-7.09824126e-07
7.33989102e-07
0.000173747276
-5.10760703e-07
6.70122068e-07
-2.48276976e-07
6.09910631e-07
0.000173264498
0.000435884499
4.09194883e-06
6.52991434e-05
0.000361911784
1.04675545e-05
7.69386394e-05
0.000304148734
1.45065999e-05
6.14971523e-05
0.000263620674
1.64099958e-05
4.41848785e-05
0.000236887174
1.67262253e-05
2.98895202e-05
0.000220036703
1.59999994e-05
1.93622691e-05
0.000209565868
1.46600807e-05
1.23447816e-05
0.000202922099
1.30236704e-05
7.96913242e-06
0.000198477651
1.12999071e-05
5.33890677e-06
0.000195267896
9.6098088e-06
3.78582843e-06
0.000192755645
8.01701094e-06
2.86574488e-06
0.000190660164
6.55167963e-06
2.30396711e-06
0.00018884303
5.22511289e-06
1.94120989e-06
0.000187239392
4.0383882e-06
1.68896387e-06
0.000185819634
2.98750847e-06
1.49932824e-06
0.000184569058
2.06644339e-06
1.3469538e-06
0.000183477796
1.26889407e-06
1.21858241e-06
0.000182536293
5.89254169e-07
1.10717463e-06
0.000181733559
2.30536032e-08
1.00878997e-06
0.000181056759
-4.33071651e-07
9.21020264e-07
0.000180491263
-7.81536015e-07
8.42188626e-07
0.000180020867
-1.02415953e-06
7.71027449e-07
0.000179628187
-1.16275586e-06
7.06469193e-07
0.000179295054
-1.19968905e-06
6.47583903e-07
0.000179002952
-1.1384299e-06
5.93555807e-07
0.000178733513
-9.840576e-07
5.43672897e-07
0.000178469072
-7.43643255e-07
4.97323785e-07
-4.26458481e-07
4.53995785e-07
0.000178193258
0.000435448224
3.25299647e-06
6.53907284e-05
0.000360405256
8.34118397e-06
7.7169338e-05
0.000301442724
1.17165238e-05
6.17526077e-05
0.000259980193
1.35249722e-05
4.43475541e-05
0.000232687866
1.40942343e-05
2.9924318e-05
0.00021561299
1.37795575e-05
1.9295318e-05
0.000205172611
1.28905741e-05
1.22098862e-05
0.000198735228
1.1671614e-05
7.78944008e-06
0.000194608636
1.02967329e-05
5.12976565e-06
0.000191782358
8.87914303e-06
3.55694466e-06
0.000189688694
7.48796091e-06
2.62271394e-06
0.000188026477
6.16330512e-06
2.05059172e-06
0.000186643373
4.92729074e-06
1.68092671e-06
0.00018546534
3.79133086e-06
1.42509078e-06
0.000184457197
2.76073493e-06
1.23491605e-06
0.000183601386
1.83758626e-06
1.08466844e-06
0.000182887071
1.02255177e-06
9.60656636e-07
0.000182304936
3.15982952e-07
8.554066e-07
0.000181844926
-2.81519536e-07
7.64583009e-07
0.000181495326
-7.68930188e-07
6.85457874e-07
0.000181242469
-1.14479289e-06
6.1611408e-07
0.000181070843
-1.40763222e-06
5.55098428e-07
0.000180963315
-1.5564431e-06
5.01215135e-07
0.000180901467
-1.59128954e-06
4.53449258e-07
0.000180866062
-1.51394674e-06
4.10921587e-07
0.000180837644
-1.32850499e-06
3.72866032e-07
0.000180797242
-1.04185356e-06
3.38612049e-07
-6.63955228e-07
3.07570754e-07
0.000180727168
0.000435163318
2.62781072e-06
6.54618675e-05
0.000359407516
6.74899501e-06
7.73479912e-05
0.000299592244
9.56691109e-06
6.19648845e-05
0.000257395778
1.12053516e-05
4.45160871e-05
0.00022959389
1.18752935e-05
3.00208285e-05
0.000212230442
1.18103224e-05
1.93326833e-05
0.000201681404
1.12305113e-05
1.22091007e-05
0.000195268281
1.03203382e-05
7.76439917e-06
0.000191257201
9.21977529e-06
5.08803888e-06
0.000188606255
8.0280658e-06
3.50202257e-06
0.000186726358
6.81236445e-06
2.55549376e-06
0.00018530206
5.61651519e-06
1.97108793e-06
0.000184171254
4.46864601e-06
1.58945108e-06
0.000183253165
3.38686629e-06
1.32255388e-06
0.000182508114
2.38310091e-06
1.12268459e-06
0.000181915713
1.46563039e-06
9.64356668e-07
0.000181463503
6.40801519e-07
8.33960146e-07
0.000181141349
-8.58487207e-08
7.23985628e-07
0.000180938817
-7.09009204e-07
6.30020974e-07
0.000180843932
-1.2232278e-06
5.49182618e-07
0.000180842683
-1.62298986e-06
4.79445044e-07
0.000180918898
-1.9030838e-06
4.19237066e-07
0.00018105432
-2.05913469e-06
3.67269619e-07
0.000181228891
-2.08831157e-06
3.22451279e-07
0.000181421239
-1.99012637e-06
2.83831407e-07
0.000181609382
-1.76723021e-06
2.50582906e-07
0.000181771627
-1.42606381e-06
2.21965406e-07
-9.77242036e-07
1.9729467e-07
0.000181887619
0.000434966927
2.14408338e-06
6.55168002e-05
0.000358717096
5.51322283e-06
7.7485604e-05
0.000298285238
7.86421957e-06
6.21345498e-05
0.000255518667
9.30663105e-06
4.46652915e-05
0.000227279899
9.98619693e-06
3.01278649e-05
0.000209627212
1.00597398e-05
1.94032694e-05
0.000198918375
9.68290624e-06
1.22564429e-05
0.000192447426
8.99324203e-06
7.79804575e-06
0.000188453269
8.10087942e-06
5.11305273e-06
0.000185871712
7.08935447e-06
3.52026807e-06
0.000184097572
6.01973074e-06
2.56677399e-06
0.000182804357
4.93532823e-06
1.97440244e-06
0.000181822415
3.86665225e-06
1.583935e-06
0.000181065861
2.83559084e-06
1.30782959e-06
0.000180491671
1.85844576e-06
1.09884459e-06
0.000180077404
9.48057118e-07
9.31840153e-07
0.000179809441
1.15332824e-07
7.93431435e-07
0.000179677063
-6.29739122e-07
6.76268201e-07
0.000179669469
-1.27739179e-06
5.75975603e-07
0.000179774307
-1.81777631e-06
4.8971104e-07
0.000179976926
-2.24106819e-06
4.1545873e-07
0.000180260027
-2.53783098e-06
3.51646697e-07
0.00018060358
-2.69968312e-06
2.96995037e-07
0.00018098504
-2.72019147e-06
2.50419723e-07
0.00018137985
-2.59591303e-06
2.10976999e-07
0.000181762274
-2.32747326e-06
1.77818974e-07
0.00018210655
-1.92051843e-06
1.50179163e-07
-1.38634628e-06
1.27366231e-07
0.000182388288
0.000434826332
1.75840148e-06
6.55593497e-05
0.000358221594
4.52575735e-06
7.75922044e-05
0.000297333825
6.48330981e-06
6.22686792e-05
0.000254123225
7.72750262e-06
4.47897293e-05
0.000225518824
8.36443406e-06
3.02261642e-05
0.000207598783
8.50203413e-06
1.94777466e-05
0.00019671554
8.25063399e-06
1.23155157e-05
0.000190148296
7.71204575e-06
7.84844082e-06
0.000186118978
6.97167337e-06
5.1585241e-06
0.000183548154
6.09798108e-06
3.56219744e-06
0.000181818747
5.14416902e-06
2.60496813e-06
0.000180595607
4.150484e-06
2.00798405e-06
0.000179702966
3.14728159e-06
1.61201228e-06
0.000179050759
2.15801294e-06
1.32978455e-06
0.000178593295
1.20154599e-06
1.11436337e-06
0.000178306607
2.9389483e-07
9.40849297e-07
0.000178176375
-5.50491358e-07
7.96055859e-07
0.000178191644
-1.31773985e-06
6.72731488e-07
0.000178341582
-1.99389875e-06
5.66569111e-07
0.000178613696
-2.56469983e-06
4.74809017e-07
0.000178992782
-3.01564358e-06
3.95489088e-07
0.000179460308
-3.33245461e-06
3.27098431e-07
0.00017999413
-3.50190706e-06
2.68400996e-07
0.000180568572
-3.5129904e-06
2.18357207e-07
0.000181154912
-3.35833331e-06
1.76080503e-07
0.000181722379
-3.0357297e-06
1.40789835e-07
0.000182239637
-2.54954954e-06
1.1177354e-07
-1.9117536e-06
8.8358469e-08
0.000182676686
0.000434722332
1.4435231e-06
6.55925463e-05
0.000357854296
3.71835661e-06
7.76754383e-05
0.000296621447
5.34160073e-06
6.2374558e-05
0.000253061604
6.39638473e-06
4.48909616e-05
0.000224153351
6.96233474e-06
3.03103531e-05
0.000205994347
7.11533113e-06
1.95457071e-05
0.000194938295
6.93400054e-06
1.2372686e-05
0.000188257431
6.49339868e-06
7.89951074e-06
0.000184163796
5.85903993e-06
5.20626831e-06
0.000181568131
5.0859455e-06
3.60770075e-06
0.000179845076
4.21906621e-06
2.64815766e-06
0.000178653059
3.29423683e-06
2.04826407e-06
0.000177811579
2.34002944e-06
1.64873243e-06
0.000177227289
1.37985652e-06
1.36244527e-06
0.000176852455
4.33736601e-07
1.14264333e-06
0.000176662077
-4.80321827e-07
9.64594806e-07
0.000176641551
-1.34516408e-06
8.15197708e-07
0.000176780149
-2.14356398e-06
6.87226111e-07
0.000177067434
-2.85763955e-06
5.76455419e-07
0.000177491133
-3.46856749e-06
4.80169273e-07
0.000178035738
-3.95668804e-06
3.96438881e-07
0.000178681542
-4.30205814e-06
3.23799699e-07
0.000179404039
-4.48548858e-06
2.61084407e-07
0.000180173777
-4.49006837e-06
2.07339656e-07
0.000180956786
-4.30311075e-06
1.6176943e-07
0.000181715712
-3.91834257e-06
1.23686071e-07
0.000182411736
-3.33803827e-06
9.24649461e-08
-2.57468013e-06
6.74977189e-08
0.000183007166
0.000434643087
1.18172097e-06
6.56187159e-05
0.000357573922
3.04636919e-06
7.77411529e-05
0.000296073571
4.383275e-06
6.24586772e-05
0.000252234924
5.26215853e-06
4.4972874e-05
0.000223073313
5.74333885e-06
3.03806075e-05
0.000204703376
5.88080086e-06
1.96044674e-05
0.000193483002
5.73081184e-06
1.24235633e-05
0.000186682082
5.34851644e-06
7.9458023e-06
0.000182507428
4.78366456e-06
5.25002916e-06
0.00017986389
4.07970347e-06
3.64978027e-06
0.000178120757
3.27365355e-06
2.68854466e-06
0.000176932084
2.39635604e-06
2.08655345e-06
0.000176114056
1.47359145e-06
1.68446636e-06
0.000175571062
5.27593688e-07
1.39525664e-06
0.000175254089
-4.2159629e-07
1.17230498e-06
0.000175137749
-1.35493853e-06
9.90957219e-07
0.000175207804
-2.25332477e-06
8.38105523e-07
0.000175454373
-3.09671907e-06
7.06585792e-07
0.000175868037
-3.86349217e-06
5.92187915e-07
0.000176437348
-4.53007838e-06
4.92200194e-07
0.000177146994
-5.07105304e-06
4.04718979e-07
0.00017797636
-5.45974745e-06
3.2832345e-07
0.00017889847
-5.66950844e-06
2.61909414e-07
0.000179879459
-5.67566927e-06
2.04612081e-07
0.000180878805
-5.45820126e-06
1.55744472e-07
0.000181850583
-5.00486386e-06
1.1474371e-07
0.00018274589
-4.31445924e-06
8.11138975e-08
-3.39956984e-06
5.43591922e-08
0.00018351642
0.00043458101
9.61083378e-07
6.5639628e-05
0.000357353925
2.47968145e-06
7.77937739e-05
0.000295641114
3.56979542e-06
6.25262918e-05
0.000251575808
4.28798958e-06
4.50394751e-05
0.000222200826
4.67947129e-06
3.04388507e-05
0.000203644819
4.782549e-06
1.96542591e-05
0.000192270776
4.63744558e-06
1.24674092e-05
0.000185348771
4.28443814e-06
7.98608313e-06
0.000181083334
3.76080947e-06
5.28829213e-06
0.000178376143
3.1002019e-06
3.68669224e-06
0.000176593359
2.33232387e-06
2.7241133e-06
0.000175386392
1.48284337e-06
2.12047932e-06
0.000174569452
5.74129772e-07
1.71640141e-06
0.000174045717
-3.73616256e-07
1.42494496e-06
0.000173765795
-1.34124054e-06
1.19956582e-06
0.000173704789
-2.30952423e-06
1.01559131e-06
0.000173849679
-3.25818558e-06
8.59970418e-07
0.000174192328
-4.16491036e-06
7.25543008e-07
0.000174725305
-5.00455034e-06
6.08080676e-07
0.000175438975
-5.74861241e-06
5.04863505e-07
0.000176319124
-6.36519907e-06
4.13997568e-07
0.000177344878
-6.8195955e-06
3.34093172e-07
0.000178486973
-7.0757112e-06
2.64108069e-07
0.000179706584
-7.0985542e-06
2.03273999e-07
0.000180955142
-6.85780064e-06
1.51041048e-07
0.000182175571
-6.33231006e-06
1.07017301e-07
0.000183305318
-5.51510038e-06
7.08943674e-08
-4.41787751e-06
4.23495119e-08
0.000184281276
0.00043453108
7.73389827e-07
6.56566146e-05
0.000357176675
1.9974763e-06
7.78366104e-05
0.000295290947
2.87405555e-06
6.25814695e-05
0.000251037606
3.44709911e-06
4.50942323e-05
0.000221480327
3.7493986e-06
3.04873519e-05
0.000202759037
3.80751412e-06
1.96963248e-05
0.000191241747
3.64986985e-06
1.25048659e-05
0.000184199972
3.30550108e-06
8.02071219e-06
0.000179837708
2.80178199e-06
5.3212911e-06
0.000177055241
2.16407304e-06
3.71859539e-06
0.000175217224
1.41540751e-06
2.75493305e-06
0.000173973788
5.76304462e-07
2.14997458e-06
0.000173138283
-3.34688101e-07
1.74432313e-06
0.000172613683
-1.30010767e-06
1.45109046e-06
0.000172351239
-2.3024944e-06
1.22369815e-06
0.000172327518
-3.32333582e-06
1.03753224e-06
0.000172531778
-4.34200296e-06
8.79557386e-07
0.00017295886
-5.33457003e-06
7.42577131e-07
0.000173604716
-6.27273944e-06
6.22333545e-07
0.000174463022
-7.12300337e-06
5.16084829e-07
0.000175522154
-7.84625705e-06
4.21925915e-07
0.00017676225
-8.39817756e-06
3.38485399e-07
0.000178152465
-8.73071111e-06
2.64785191e-07
0.00017964877
-8.79503312e-06
2.00173908e-07
0.00018119293
-8.54624125e-06
1.44280102e-07
0.000182713433
-7.94976528e-06
9.69518643e-08
0.000184129132
-6.98896192e-06
5.81623774e-08
-5.67262961e-06
2.78654423e-08
0.000185356018
0.000434489873
6.1285024e-07
6.56706676e-05
0.000357030173
1.58505875e-06
7.78721187e-05
0.000295000265
2.27666789e-06
6.26272958e-05
0.000250587563
2.71985856e-06
4.51399441e-05
0.000220871845
2.9369225e-06
3.05281948e-05
0.000202002006
2.94525287e-06
1.97321005e-05
0.000190350562
2.76434222e-06
1.25369713e-05
0.000183190955
2.41457251e-06
8.05053498e-06
0.000178727593
1.91535283e-06
5.34979094e-06
0.000175860481
1.28496992e-06
3.74621499e-06
0.000173953839
5.40364955e-07
2.78168459e-06
0.000172657467
-3.03026229e-07
2.17570188e-06
0.000171784796
-1.23085249e-06
1.76883561e-06
0.000171239555
-2.22898776e-06
1.47412004e-06
0.000170974533
-3.28250484e-06
1.24503251e-06
0.000170968795
-4.37459691e-06
1.05699911e-06
0.000171215158
-5.48530482e-06
8.96938672e-07
0.000171712993
-6.59002269e-06
7.57617408e-07
0.000172463497
-7.65796685e-06
6.34723893e-07
0.000173465824
-8.65079424e-06
5.25462943e-07
0.000174713262
-9.52159635e-06
4.27901189e-07
0.000176189157
-1.02147468e-05
3.40674303e-07
0.000177862702
-1.0667123e-05
2.62866902e-07
0.000179685073
-1.08113731e-05
1.93968277e-07
0.00018158684
-1.05818554e-05
1.33846644e-07
0.000183477955
-9.92357915e-06
8.26988531e-08
0.000185251791
-8.80373654e-06
4.09375875e-08
-7.22419548e-06
8.97242663e-09
0.000186794384
0.00043445502
4.75309653e-07
6.56825215e-05
0.000356906103
1.23186409e-06
7.79021122e-05
0.000294753132
1.76356279e-06
6.26660775e-05
0.00025020244
2.09177243e-06
4.51787788e-05
0.000220346474
2.2297831e-06
3.05631059e-05
0.000201341224
2.18761038e-06
1.97628928e-05
0.000189563014
1.97779155e-06
1.25647605e-05
0.000182287236
1.6139054e-06
8.07644499e-06
0.00017771914
1.10883027e-06
5.37461861e-06
0.000174759048
4.74725175e-07
3.7703361e-06
0.00017277134
-2.77102098e-07
2.80517465e-06
0.000171406139
-1.13628624e-06
2.19846074e-06
0.000170477676
-2.09298216e-06
1.79059221e-06
0.000169891125
-3.13707469e-06
1.49463804e-06
0.000169601612
-4.25713369e-06
1.26414139e-06
0.00016959174
-5.43920663e-06
1.07448159e-06
0.000169859275
-6.66538135e-06
9.12540949e-07
0.000170409976
-7.91173279e-06
7.71009748e-07
0.000171252674
-9.14615795e-06
6.4549239e-07
0.000172394982
-1.03262185e-05
5.33116139e-07
0.000173838532
-1.13970363e-05
4.31889136e-07
0.000175573466
-1.229011e-05
3.40429532e-07
0.000177572134
-1.29236697e-05
2.57877493e-07
0.000179782616
-1.32057463e-05
1.8389106e-07
0.000182123313
-1.30412179e-05
1.18665277e-07
0.000184480736
-1.23439194e-05
6.29168763e-08
0.000186713178
-1.10539426e-05
1.77634709e-08
-9.15845604e-06
-1.56343522e-08
0.000188663073
0.000434424863
3.57732346e-07
6.5692715e-05
0.00035679865
9.30158517e-07
7.79279197e-05
0.000294538325
1.3243714e-06
6.26995176e-05
0.000249865696
1.55202915e-06
4.52123729e-05
0.000219883342
1.61869711e-06
3.05934403e-05
0.000200752835
1.52833968e-06
1.97897782e-05
0.000188853563
1.28794296e-06
1.25891199e-05
0.000181462636
9.05612959e-07
8.09921932e-06
0.000176786201
3.88780035e-07
5.39648469e-06
0.000173725065
-2.55844822e-07
3.79170593e-06
0.000171644047
-1.02224111e-06
2.82615658e-06
0.000170193996
-1.9050832e-06
2.21884724e-06
0.000169190262
-2.89939528e-06
1.81014728e-06
0.000168539833
-3.99985214e-06
1.51320666e-06
0.000168200811
-5.19963785e-06
1.28152577e-06
0.000168160354
-6.48919743e-06
1.09044769e-06
0.00016842259
-7.85439099e-06
9.2677313e-07
0.00016900162
-9.27385581e-06
7.8309319e-07
0.000169916871
-1.07163057e-05
6.54896636e-07
0.00017118837
-1.21369082e-05
5.39189911e-07
0.000172831002
-1.34735443e-05
4.33875774e-07
0.0001748473
-1.46439242e-05
3.37515058e-07
0.000177218316
-1.5543972e-05
2.49286086e-07
0.000179893117
-1.60495949e-05
1.6904751e-07
0.00018277852
-1.60240665e-05
9.74445903e-08
0.000185732232
-1.533361e-05
3.59786707e-08
0.000188564219
-1.38728184e-05
-1.31120344e-08
-1.15992311e-05
-4.73632453e-08
0.000191052357
0.000434398242
2.57852243e-07
6.57016386e-05
0.000356703743
6.7415584e-07
7.79505026e-05
0.000294347964
9.51298413e-07
6.27288531e-05
0.000249565629
1.09243381e-06
4.52419314e-05
0.000219467541
1.096567e-06
3.06202187e-05
0.000200219617
9.62674616e-07
1.98135888e-05
0.000188203579
6.93235759e-07
1.26107449e-05
0.000180697842
2.91892242e-07
8.11945745e-06
0.000175909235
-2.38651692e-07
5.41603839e-06
0.000172738952
-8.96536494e-07
3.81097492e-06
0.000170552285
-1.68067566e-06
2.8451009e-06
0.000169000755
-2.59084063e-06
2.23728736e-06
0.000167900795
-3.6274011e-06
1.82796513e-06
0.00016716134
-4.79063425e-06
1.53023677e-06
0.000166743799
-6.07966115e-06
1.29756419e-06
0.000166640513
-7.49113068e-06
1.10521887e-06
0.000166863123
-9.01690194e-06
9.39900563e-07
0.000167436363
-1.06411594e-05
7.94063381e-07
0.000168393619
-1.2336592e-05
6.63030598e-07
0.000169772166
-1.40590826e-05
5.43626548e-07
0.000171606948
-1.57419071e-05
4.33580868e-07
0.000173921337
-1.72896479e-05
3.31333927e-07
0.000176714421
-1.85731258e-05
2.36068656e-07
0.000179944641
-1.94277001e-05
1.47885198e-07
0.000183511373
-1.9658869e-05
6.80699451e-08
0.000187238906
-1.906046e-05
-6.84052414e-10
0.000190870975
-1.74505786e-05
-5.43095941e-08
-1.47283944e-05
-8.7990506e-08
0.000194088129
0.000434374359
1.73924985e-07
6.57095693e-05
0.000356618582
4.59390466e-07
7.79705432e-05
0.000294176615
6.3830432e-07
6.27549613e-05
0.000249294146
7.06590597e-07
4.52683134e-05
0.000219088725
6.57810389e-07
3.06441776e-05
0.000199729591
4.86878691e-07
1.98349302e-05
0.000187600052
1.92648069e-07
1.26301268e-05
0.000179979361
-2.25135166e-07
8.13771807e-06
0.000175074612
-7.67729142e-07
5.43382625e-06
0.000171787127
-1.43753214e-06
3.82847985e-06
0.000169482331
-2.23817817e-06
2.86229825e-06
0.000167811984
-3.17463301e-06
2.2541395e-06
0.000166593239
-4.25301359e-06
1.8443571e-06
0.000165736671
-5.48006756e-06
1.54600112e-06
0.000165206827
-6.86229269e-06
1.31247474e-06
0.000165001287
-8.40455037e-06
1.11895963e-06
0.000165140087
-1.01077182e-05
9.52016027e-07
0.000165660475
-1.19654554e-05
8.03908233e-07
0.000166613304
-1.39591439e-05
6.69722329e-07
0.000168059015
-1.60508042e-05
5.46009542e-07
0.000170061427
-1.81745414e-05
4.30222614e-07
0.000172676993
-2.02257934e-05
3.20578444e-07
0.000175937927
-2.20502605e-05
2.16200376e-07
0.000179827835
-2.343509e-05
1.17480813e-07
0.000184250244
-2.41079223e-05
2.66443593e-08
0.000188995766
-2.37542056e-05
-5.17778668e-08
0.000193718941
-2.20634055e-05
-1.10348785e-07
-1.8820447e-05
-1.39673726e-07
0.000197950666
0.000434352685
1.04541489e-07
6.57166987e-05
0.000356541313
2.82251636e-07
7.79885116e-05
0.000294020688
3.80489234e-07
6.2778441e-05
0.000249045922
3.8925473e-07
4.52921029e-05
0.000218740143
2.9777214e-07
3.06658173e-05
0.000199274957
9.78713152e-08
1.98541942e-05
0.0001870347
-2.14841046e-07
1.26477456e-05
0.00017929882
-6.43709604e-07
8.15445386e-06
0.000174274226
-1.19318685e-06
5.45005181e-06
0.00017086185
-1.86954773e-06
3.84439165e-06
0.000168426569
-2.68090941e-06
2.87801181e-06
0.00016661968
-3.63737392e-06
2.26962921e-06
0.000165258264
-4.75110365e-06
1.85950593e-06
0.000164253654
-6.0360928e-06
1.5606346e-06
0.000163572619
-7.50759805e-06
1.3263401e-06
0.000163217402
-9.18101137e-06
1.13167814e-06
0.000163216422
-1.10697571e-05
9.63018556e-07
0.000163620371
-1.31817642e-05
8.1235925e-07
0.00016450061
-1.55138204e-05
6.74437349e-07
0.000165947297
-1.80428791e-05
5.4538666e-07
0.000168064084
-2.07135409e-05
4.22212214e-07
0.000170957107
-2.34215504e-05
3.02734048e-07
0.0001747151
-2.59941586e-05
1.85904547e-07
0.000179374857
-2.81673047e-05
7.24565078e-08
0.000184870402
-2.95693388e-05
-3.41289394e-08
0.00019097059
-2.9727898e-05
-1.26497277e-07
0.000197215972
-2.81178055e-05
-1.90983564e-07
-2.4301903e-05
-2.09242085e-07
0.000202906669
0.000434332922
4.84558208e-08
6.57231645e-05
0.000356470822
1.39632871e-07
7.80047187e-05
0.00029387803
1.73610054e-07
6.27996722e-05
0.000248817804
1.35823452e-07
4.53136576e-05
0.00021841784
1.23085377e-08
3.06854281e-05
0.000198851464
-2.07547696e-07
1.98717951e-05
0.000186503324
-5.30669547e-07
1.26639692e-05
0.000178652495
-9.62625424e-07
8.16974383e-06
0.000173505161
-1.51063095e-06
5.46477815e-06
0.000169961097
-2.18437001e-06
3.85888625e-06
0.000167383775
-2.9959845e-06
2.89239715e-06
0.000165423002
-3.96047313e-06
2.28387127e-06
0.00016389451
-5.09609958e-06
1.87348773e-06
0.000162708852
-6.42459996e-06
1.57416492e-06
0.000161833288
-7.97115424e-06
1.33911991e-06
0.000161272922
-9.76388062e-06
1.14323489e-06
0.000161062941
-1.18323867e-05
9.72610543e-07
0.000161267037
-1.42047151e-05
8.18853844e-07
0.000161978736
-1.69016908e-05
6.76171575e-07
0.000163323216
-1.99273919e-05
5.40031623e-07
0.00016545602
-2.32530215e-05
4.06676725e-07
0.000168555457
-2.67942084e-05
2.73220857e-07
0.000172801051
-3.03780371e-05
1.38283287e-07
0.000178329501
-3.3698899e-05
3.14430503e-09
0.000185159676
-3.62731633e-05
-1.26352347e-07
0.000193078802
-3.74087443e-05
-2.38281025e-07
0.000201498093
-3.62288885e-05
-3.08210067e-07
-3.18667022e-05
-3.05349698e-07
0.00020936824
0.000434315045
4.43326725e-09
6.57289777e-05
0.000356406596
2.86927085e-08
7.80193905e-05
0.000293747524
1.38224638e-08
6.281886e-05
0.000248608374
-5.82222954e-08
4.53331964e-05
0.000218120314
-2.03023878e-07
3.07033926e-05
0.000198457826
-4.33052409e-07
1.98879924e-05
0.000186005263
-7.56862503e-07
1.26787564e-05
0.000178040859
-1.18178214e-06
8.18355999e-06
0.000172769349
-1.71723532e-06
5.47811442e-06
0.000169088522
-2.37560331e-06
3.87206065e-06
0.000166359436
-3.17241596e-06
2.90551681e-06
0.00016422909
-4.12702611e-06
2.29689858e-06
0.00016251013
-5.26343552e-06
1.88629552e-06
0.000161110089
-6.61109105e-06
1.58653156e-06
0.000159993913
-8.20565468e-06
1.35067641e-06
0.000159166208
-1.00895434e-05
1.15336727e-06
0.000158665295
-1.23117871e-05
9.80313068e-07
0.000158564517
-1.49264655e-05
8.22527742e-07
0.000158977944
-1.79884894e-05
6.73371735e-07
0.000160068096
-2.15447226e-05
5.27178253e-07
0.000162053243
-2.56169662e-05
3.7879735e-07
0.000165208773
-3.01736499e-05
2.23910977e-07
0.000169852147
-3.50816065e-05
6.01945474e-08
0.0001762974
-4.0033936e-05
-1.10216602e-07
0.000184755834
-4.44554934e-05
-2.76105439e-07
0.000195144145
-4.7382938e-05
-4.14119832e-07
0.000206778961
-4.73917696e-05
-4.71938067e-07
-4.27538824e-05
-4.09146946e-07
0.000218075284
0.00043429873