/*--------------------------------*- C++ -*----------------------------------*\
| =========                 |                                                 |
| \\      /  F ield         | foam-extend: Open Source CFD                    |
|  \\    /   O peration     | Version:     4.1                                |
|   \\  /    A nd           | Web:         http://www.foam-extend.org         |
|    \\/     M anipulation  |                                                 |
\*---------------------------------------------------------------------------*/
FoamFile
{
    version     2.0;
    format      ascii;
    class       volScalarField;
    location    "0.65";
    object      rAU;
}
// * * * * * * * * * * * * * * * * * * * * * * * * * * * * * * * * * * * * * //

dimensions      [0 0 1 0 0 0 0];

internalField   nonuniform List<scalar> 
35840
(
0.000714285847
0.000836637806
0.000924548977
0.000999613581
0.00105386543
0.0010904651
0.00111504853
0.00113178996
0.00114332229
0.00115144498
0.0011573666
0.00116184082
0.00116532818
0.00116811619
0.001170389
0.00117226811
0.0011738372
0.00117509311
0.0011761498
0.00117705973
0.00117784869
0.00117853881
0.00117914931
0.00117969706
0.00118019691
0.00118066186
0.00118110326
0.00118153082
0.000739083871
0.000819497733
0.000880892288
0.00095117311
0.0010161243
0.0010694464
0.00111046992
0.00114131982
0.00116443092
0.00118186197
0.00119522418
0.00120567853
0.00121402034
0.00122079208
0.00122636814
0.00123101094
0.00123490878
0.00123813037
0.00124085804
0.00124311193
0.00124498791
0.0012466443
0.00124812168
0.0012494557
0.0012506778
0.00125181558
0.0012528931
0.001253931
0.000753175768
0.000833322992
0.000878398531
0.000929314394
0.000978234691
0.00102100085
0.00105596517
0.00108369738
0.0011055688
0.0011229124
0.0011368244
0.00114813747
0.00115745484
0.00116521128
0.00117172466
0.001177231
0.0011819089
0.00118589661
0.00118930374
0.00119214305
0.00119434976
0.00119625836
0.00119798028
0.00119955242
0.00120100757
0.00120237464
0.0012036788
0.00120494152
0.000760309145
0.000850112999
0.000895623435
0.000941324713
0.000982256869
0.00101675972
0.00104457573
0.00106663095
0.00108422952
0.0010984997
0.00111028161
0.00112016458
0.00112855192
0.00113572474
0.00114188778
0.00114719694
0.00115177545
0.0011557237
0.00115912556
0.0011620525
0.00116418739
0.00116597922
0.00116761975
0.00116914088
0.00117057161
0.00117193775
0.00117326179
0.00117456265
0.000763382757
0.000860199524
0.000909774877
0.000956401083
0.000995497234
0.00102638313
0.00104993291
0.00106781656
0.00108169161
0.00109281681
0.00110203626
0.0011098779
0.00111666029
0.0011225782
0.00112775877
0.00113229307
0.00113625269
0.00113969802
0.00114268235
0.00114522848
0.0011468529
0.00114826988
0.00114959316
0.00115084788
0.00115205762
0.00115324378
0.00115442492
0.00115561634
0.000765074409
0.000866246985
0.000919348376
0.000968014794
0.00100750908
0.00103741175
0.00105911695
0.00107478509
0.00108639394
0.00109538253
0.00110268216
0.00110884857
0.00111419457
0.00111889239
0.00112303942
0.0011266958
0.00112990423
0.00113269978
0.00113511436
0.00113690902
0.00113788325
0.0011388032
0.00113968852
0.00114055945
0.00114143563
0.00114233507
0.0011432733
0.00114426258
0.000766121911
0.000870081908
0.000925796486
0.000976358964
0.00101677663
0.00104668698
0.00106773006
0.00108235726
0.00109276533
0.00110052771
0.0011066502
0.00111172503
0.00111607913
0.001119886
0.00112323696
0.00112618204
0.0011287522
0.00113097058
0.00113285783
0.00113363398
0.00113406418
0.00113448791
0.00113492346
0.00113538997
0.00113590622
0.00113648942
0.00113715411
0.0011379112
0.000766817307
0.000872665276
0.000930310328
0.000982462734
0.00102385244
0.00105409201
0.00107495916
0.00108909949
0.00109886854
0.00110593989
0.0011113744
0.00111579136
0.0011195291
0.00112276435
0.00112558707
0.00112804342
0.00113015898
0.00113195093
0.00113307189
0.00113307624
0.00113305334
0.00113305172
0.0011330923
0.00113319665
0.00113338583
0.00113367897
0.00113409203
0.0011346365
0.000767310978
0.000874505576
0.000933600433
0.000987055343
0.00102935057
0.00106003094
0.00108094675
0.00109487613
0.00110429475
0.00111095778
0.00111597289
0.00111998265
0.00112333502
0.00112620915
0.00112869376
0.00113083176
0.0011326445
0.00113403361
0.00113406503
0.00113367787
0.00113330064
0.00113295767
0.0011326749
0.0011324788
0.00113239509
0.00113244717
0.00113265447
0.00113303087
0.000767679293
0.000875875708
0.000936082696
0.000990601821
0.00103370961
0.0010648667
0.00108595246
0.00109983212
0.00110907073
0.00111549015
0.00112023983
0.00112398503
0.00112708423
0.00112972006
0.00113198081
0.00113390671
0.00113551515
0.00113588899
0.00113524094
0.00113457267
0.00113391254
0.00113329105
0.00113274054
0.00113229405
0.00113198392
0.00113183976
0.00113188641
0.00113214172
0.000767964533
0.000876933048
0.000938013155
0.000993407052
0.00103723201
0.00106886468
0.0010901875
0.00110412057
0.00111329356
0.00111958108
0.00112416854
0.00112774273
0.00113067349
0.00113314839
0.0011352566
0.00113703666
0.00113778897
0.00113713266
0.00113626073
0.00113535465
0.00113444902
0.00113358123
0.00113279118
0.00113212015
0.001131609
0.00113129575
0.00113121271
0.00113138355
0.000768192132
0.000877773399
0.000939554226
0.00099567415
0.00104012779
0.00107221594
0.00109381022
0.00110786384
0.00111705221
0.00112329052
0.00112779398
0.0011312686
0.00113409546
0.00113646778
0.00113847663
0.00113953513
0.00113906204
0.00113807822
0.00113700277
0.00113587386
0.00113473257
0.00113362394
0.00113259677
0.00113170246
0.00113099285
0.00113051706
0.00113031769
0.0011304266
0.000768378066
0.00087845729
0.000940811643
0.000997541011
0.00104254551
0.00107506058
0.00109694065
0.00111115784
0.00112041959
0.00112667189
0.00113115397
0.00113458837
0.00113736648
0.00113968723
0.0011410943
0.001140879
0.00113988897
0.00113873476
0.00113745829
0.00113610291
0.0011347163
0.00113335188
0.00113206888
0.00113093121
0.00113000481
0.00112935366
0.00112903455
0.00112909103
0.000768532743
0.000879024342
0.000941856163
0.000999103068
0.00104459176
0.00107750262
0.00109967078
0.00111407829
0.00112345497
0.00112977012
0.00113428217
0.00113772751
0.00114050663
0.00114233571
0.00114246816
0.00114159883
0.0011404771
0.00113915084
0.00113766491
0.00113606697
0.00113441107
0.00113275964
0.00113118406
0.00112976357
0.00112858233
0.0011277243
0.00112726605
0.00112726805
0.000768663165
0.000879501277
0.000942736259
0.00100042742
0.00104634378
0.00107961974
0.00110207127
0.00111668495
0.00112620633
0.00113262244
0.00113720709
0.00114070829
0.0011430967
0.00114370047
0.00114310458
0.00114214954
0.00114089537
0.00113938989
0.001137679
0.00113581329
0.00113385243
0.00113186813
0.00112994554
0.00112818264
0.00112668709
0.00112556987
0.00112493546
0.00112486915
0.000768774161
0.000879906559
0.0009434858
0.00100156188
0.00104785792
0.00108147
0.00110419625
0.0011190246
0.00112871186
0.00113525881
0.00113995181
0.0011431524
0.00114441044
0.00114427402
0.00114364364
0.00114260573
0.00114121702
0.00113952263
0.00113756696
0.00113540124
0.00113308918
0.00113071131
0.00112836788
0.00112617942
0.00112428379
0.00112282866
0.00112195832
0.00112179513
0.000768869135
0.0008802532
0.000944128835
0.00100254087
0.00104917547
0.00108309672
0.00110608673
0.00112113309
0.00113100092
0.00113770207
0.00114217173
0.00114437317
0.00114493428
0.00114481565
0.00114415832
0.00114304262
0.00114151897
0.00113962651
0.00113740463
0.00113490172
0.00113218253
0.0011293347
0.00112647406
0.00112374751
0.0011213314
0.00111942334
0.00111822499
0.00111789608
0.000768950528
0.00088055053
0.000944682652
0.00100338931
0.00105032663
0.00108453194
0.00110777322
0.001123037
0.0011330949
0.00113963565
0.00114326164
0.00114485293
0.00114548042
0.00114539178
0.00114472006
0.00114353687
0.00114188313
0.00113978776
0.00113728025
0.00113440098
0.00113121075
0.0011278003
0.00112429964
0.0011208851
0.00111778123
0.00111525341
0.00111357131
0.00111298898
0.000769020123
0.000880805337
0.000945159815
0.00100412537
0.00105133346
0.00108579897
0.0011092777
0.00112475495
0.00113470048
0.0011405645
0.00114369677
0.00114539479
0.00114610452
0.00114606501
0.00114539949
0.00114416806
0.00114239831
0.00114010408
0.00113729875
0.00113400705
0.00113027751
0.00112619635
0.00112190271
0.00111760297
0.00111357995
0.00111019025
0.0011077755
0.00110682736
0.000769079251
0.000881022646
0.000945569542
0.00100476225
0.00105221188
0.0010869144
0.00111061525
0.00112601333
0.0011354481
0.00114095046
0.00114421842
0.00114604111
0.00114685647
0.00114689425
0.00114626635
0.00114501876
0.00114316172
0.00114068817
0.00113758735
0.00113385796
0.00112952358
0.00112465235
0.00111938085
0.00111394029
0.00110867967
0.00110401375
0.00110058031
0.00109904345
0.000769128934
0.000881206266
0.000945918697
0.00100530965
0.00105297329
0.00108788961
0.00111153008
0.00112657103
0.00113577879
0.00114143286
0.00114485461
0.00114682667
0.00114777946
0.00114793339
0.0011473881
0.00114617348
0.00114427868
0.00114166933
0.00113830053
0.00113413116
0.00112914186
0.00112336042
0.00111689756
0.00110999241
0.00110301994
0.00109657599
0.00109160757
0.00108910552
0.000769169998
0.000881359186
0.000946212514
0.00100577471
0.00105362578
0.00108848629
0.00111190149
0.00112684101
0.00113620379
0.00114202611
0.00114562474
0.00114777734
0.00114890803
0.00114922869
0.00114882698
0.00114771577
0.00114586011
0.00114319235
0.00113962303
0.0011350535
0.00112939576
0.00112260367
0.00111472173
0.00110595629
0.00109661499
0.00108766681
0.0010803492
0.00107623168
0.000769203175
0.000881483798
0.000946455135
0.00100610412
0.00105394964
0.00108868728
0.00111210794
0.00112719456
0.00113672614
0.00114273604
0.00114653851
0.00114890828
0.00115026531
0.00115081509
0.00115063514
0.00114972233
0.00114801692
0.00114541392
0.00114176952
0.0011369087
0.00113064242
0.00112280089
0.00111329484
0.00110208496
0.00108966145
0.00107707741
0.00106607123
0.00105916199
0.00076921222
0.000881540977
0.000946557705
0.00100621975
0.00105400777
0.00108883145
0.00111238227
0.00112762648
0.00113734123
0.00114355917
0.0011475944
0.00115022145
0.00115185934
0.00115271081
0.00115284733
0.00115225386
0.00115084911
0.00114849136
0.00114497705
0.00114003864
0.00113335076
0.00112455523
0.0011132406
0.00109913318
0.00108264484
0.0010647573
0.00104769966
0.0010355823
0.000769201297
0.00088153081
0.000946545669
0.00100623474
0.0010540963
0.0010890264
0.00111271447
0.00112812546
0.00113803658
0.00114448196
0.00114877825
0.00115170312
0.00115367884
0.00115491082
0.00115547121
0.00115534127
0.00115442744
0.0011525602
0.00114948141
0.00114482516
0.00113809968
0.0011286856
0.00111552099
0.00109824433
0.00107656654
0.00105107743
0.00102400438
0.00100194349
0.000769193172
0.000881514428
0.000946545324
0.00100628031
0.00105422006
0.00108926046
0.0011130902
0.00112867431
0.00113879179
0.00114548041
0.00115006219
0.00115332161
0.00115568922
0.00115737993
0.00115847603
0.00115896797
0.0011587671
0.00115769774
0.00115547163
0.00115164517
0.00114556056
0.00113601701
0.00112171042
0.00110124504
0.00107306481
0.00103651284
0.000993355926
0.000955912292
0.000769189425
0.000881511178
0.000946564022
0.00100634849
0.001054368
0.0010895192
0.00111349122
0.00112925038
0.00113957896
0.00114652037
0.00115140453
0.00115502637
0.00115782988
0.00116004708
0.00116178165
0.00116305012
0.00116379392
0.00116386841
0.00116300875
0.00116076662
0.00115636291
0.00114804354
0.00113427143
0.00111210268
0.00107746035
0.00102599445
0.000957837035
0.000903929725
0.000769189161
0.00088151791
0.000946595987
0.00100643033
0.00105452754
0.00108978594
0.00111389604
0.00112982645
0.00114036389
0.00114755882
0.00115275109
0.00115674898
0.00116001437
0.0011628033
0.00116525185
0.00116742037
0.00116930945
0.00117085363
0.00117189174
0.00117210498
0.00117057638
0.00116591348
0.00115624356
0.00113774817
0.00110392509
0.00104525665
0.000956031194
0.000878961411
0.000739802746
0.000821721061
0.000884287167
0.000955197204
0.00102016366
0.00107304321
0.0011133779
0.00114347781
0.00116589528
0.00118273998
0.00119563299
0.00120572635
0.0012138
0.0012203802
0.00122582689
0.00123039042
0.0012342494
0.00123753564
0.00124034994
0.00124277197
0.00124486676
0.00124668887
0.00124828504
0.001249696
0.00125095763
0.00125210175
0.00125315659
0.00125414709
0.000752948552
0.00075810104
0.000763153996
0.000796315659
0.000843043561
0.000894038518
0.000942836011
0.00098619848
0.0010231329
0.00105382786
0.00107906519
0.00109981238
0.00111696732
0.00113126876
0.00114329517
0.00115349001
0.00116219135
0.00116965902
0.00117609624
0.00118166558
0.00118650033
0.00119071231
0.00119439743
0.00119763953
0.00120051299
0.00120308451
0.00120541423
0.00120755639
0.000770706096
0.000770885639
0.000754230895
0.0007616121
0.000782824041
0.000811820975
0.000843666296
0.000875074215
0.000904269201
0.000930428351
0.000953340077
0.000973168248
0.000990247327
0.00100495121
0.00101763226
0.00102859846
0.00103810875
0.00104637719
0.00105358054
0.00105986602
0.0010653579
0.00107016292
0.00107437434
0.00107807505
0.00108133983
0.00108423697
0.0010868293
0.00108917483
0.000779771074
0.000790745128
0.00077425154
0.000776095561
0.000787817091
0.00080526651
0.000825333547
0.000845959814
0.000865985425
0.000884761589
0.000901959263
0.000917479115
0.000931361895
0.000943716414
0.00095467798
0.000964386637
0.000972975775
0.000980567177
0.000987269968
0.000993181447
0.000998388658
0.00100297013
0.0010069975
0.00101053694
0.00101365031
0.00101639603
0.00101882964
0.00102100407
0.000783420707
0.000802129545
0.00079010365
0.00079403002
0.000805254939
0.000819678138
0.000834856694
0.000849620448
0.000863568716
0.00087657775
0.000888611068
0.000899677696
0.000909810208
0.000919049775
0.000927441288
0.000935032345
0.00094187217
0.000948010445
0.000953496505
0.000958378906
0.000962705245
0.000966522171
0.000969875545
0.000972810702
0.000975372715
0.000977606571
0.000979557227
0.000981269489
0.000785373895
0.000808600197
0.000800135838
0.000806890993
0.000819982138
0.000834971334
0.000849340664
0.00086215335
0.000873379298
0.000883267101
0.000892082609
0.000900040598
0.000907291103
0.000913927854
0.000920006292
0.000925560113
0.000930612351
0.000935181856
0.000939286848
0.000942946739
0.000946182932
0.00094901915
0.000951481564
0.000953598869
0.000955402298
0.000956925554
0.00095820463
0.00095927745
0.00078656535
0.000812609915
0.00080664708
0.000815654675
0.000830620274
0.000846906062
0.000861840727
0.000874484979
0.0008849219
0.000893564348
0.000900847589
0.000907131285
0.000912673495
0.000917640221
0.000922130182
0.000926198992
0.000929877024
0.00093318122
0.000936122471
0.000938710012
0.000940953959
0.000942866705
0.000944463781
0.000945764363
0.00094679155
0.000947572452
0.000948138051
0.000948522816
0.000787348715
0.000815281435
0.000811113998
0.000821858238
0.000838379071
0.000855904933
0.000871656446
0.000884669899
0.000895073439
0.000903357014
0.000910041195
0.000915564845
0.000920251235
0.000924315677
0.000927891718
0.000931057861
0.000933858125
0.000936316298
0.000938445346
0.000940253383
0.000941747432
0.000942935772
0.000943829527
0.000944443731
0.000944798058
0.000944917222
0.000944831044
0.000944574132
0.000787903341
0.000817173492
0.000814330512
0.000826430171
0.00084422873
0.000862840491
0.000879396938
0.000892907445
0.000903526767
0.000911795816
0.000918290812
0.00092350098
0.000927790347
0.000931404851
0.000934499872
0.000937168674
0.000939464541
0.00094141638
0.000943039211
0.000944341082
0.000945327529
0.000946004603
0.000946381021
0.000946469746
0.0009462848
0.000945652069
0.000945013458
0.000944401273
0.000788316956
0.000818578512
0.000816740158
0.000829912849
0.000848769315
0.000868326186
0.000885634034
0.000899668753
0.00091059681
0.000918994855
0.000925481388
0.000930584548
0.000934699567
0.000938095227
0.000940942496
0.00094334449
0.000945359996
0.000947020171
0.000948339978
0.000949325783
0.000949980443
0.000950306908
0.000949685817
0.000948769913
0.000947775858
0.00094654052
0.000945513224
0.000944726489
0.000788637559
0.00081966236
0.000818607209
0.000832642659
0.000852381891
0.000872761759
0.000890760834
0.000905317697
0.000916598433
0.00092520213
0.000931778574
0.000936886822
0.000940947924
0.000944249985
0.000946977171
0.000949240677
0.000951103273
0.000952596984
0.000953735298
0.000954521405
0.000954237622
0.000953282664
0.000951542113
0.000949697684
0.000947990774
0.000946472602
0.000945190905
0.000944187378
0.000788893892
0.000820524657
0.000820095396
0.000834835695
0.00085531788
0.000876415759
0.00089504595
0.000910109629
0.000921764724
0.000930622414
0.000937354325
0.000942543241
0.000946631226
0.000949922801
0.000952613695
0.000954822219
0.000956614479
0.000958022712
0.000958827135
0.000958094413
0.000956391949
0.000954158709
0.000951941875
0.000949805173
0.000947813281
0.000946030192
0.000944516481
0.000943325771
0.000789103848
0.000821227595
0.000821309328
0.000836634493
0.000857748016
0.000879474755
0.000898679262
0.000914227586
0.000926265349
0.000935408729
0.000942343893
0.000947671287
0.000951849623
0.000955196996
0.000957918969
0.000960139951
0.000961928714
0.000962412504
0.000961603858
0.000959312159
0.000956873763
0.000954358937
0.00095184023
0.000949393665
0.000947098277
0.00094503398
0.000943277901
0.000941899457
0.000789278996
0.000821811495
0.000822317949
0.000838135391
0.000859790758
0.000882071239
0.000901798224
0.00091780605
0.000930226421
0.00093967608
0.000946850457
0.000952362994
0.000956685441
0.000960146902
0.000962961128
0.000965257578
0.000965611686
0.000964419466
0.000962169566
0.00095965082
0.000956939457
0.000954113445
0.000951256005
0.000948457154
0.000945813228
0.000943424232
0.000941388963
0.000939798156
0.000789427077
0.000822303348
0.000823167922
0.000839404869
0.000861529691
0.000884300671
0.000904503688
0.000920945244
0.000933743103
0.000943511958
0.000950953049
0.000956689496
0.00096120322
0.000964832401
0.000967549444
0.000968267745
0.000966932221
0.000964901547
0.000962461269
0.000959692526
0.000956675086
0.00095349373
0.000950242625
0.000947027559
0.000943965751
0.000941182741
0.000938806052
0.000936955661
0.000789553404
0.00082272169
0.000823891556
0.000840489642
0.000863024568
0.000886232462
0.000906870163
0.000923720241
0.000936887342
0.000946982907
0.000954711964
0.000960704926
0.0009654521
0.000968700614
0.000969936987
0.000969007962
0.000967404738
0.000965235672
0.000962588311
0.000959541889
0.000956177161
0.000952583992
0.000948867127
0.000945149745
0.000941574099
0.000938298297
0.000935488348
0.000933304997
0.000789661709
0.000823079533
0.000824511653
0.000841422997
0.000864318504
0.000887917359
0.000908952773
0.000926187022
0.000939713002
0.000950138747
0.000958171887
0.000964448857
0.000968619721
0.000970527913
0.000970461714
0.000969522344
0.000967846317
0.000965533491
0.000962663869
0.000959310735
0.000955552049
0.000951479626
0.000947207178
0.000942876187
0.000938658447
0.000934753547
0.00093137948
0.000928741795
0.000789754658
0.00082338619
0.000825044552
0.000842228923
0.000865442802
0.000889392478
0.00091079202
0.000928386744
0.0009422595
0.000953015251
0.000961363911
0.000966952757
0.000969956684
0.00097105465
0.000971042299
0.000970103801
0.000968363663
0.000965909449
0.000962808406
0.000959122425
0.000954921176
0.000950293019
0.000945356756
0.000940271394
0.000935242445
0.000930521856
0.000926387647
0.000923133975
0.000789834199
0.000823648443
0.000825502137
0.000842924862
0.000866420246
0.000890684827
0.00091241725
0.000930348894
0.000944554278
0.000955611236
0.00096325701
0.000967871074
0.000970488893
0.00097170012
0.000971763024
0.000970847975
0.000969064548
0.000966483564
0.000963153662
0.000959118075
0.000954429411
0.00094916395
0.00094343782
0.000937423235
0.000931361734
0.000925569902
0.000920387792
0.000916301047
0.000789901781
0.000823871344
0.000825893185
0.000843523614
0.000867267435
0.000891813873
0.000913849251
0.000932093573
0.000946420761
0.000956959747
0.000963826967
0.000968397032
0.000971176475
0.00097252972
0.000972701907
0.000971847913
0.000970059308
0.000967384816
0.000963847794
0.00095946379
0.000954255968
0.000948274456
0.00094161852
0.000934462518
0.000927081101
0.000919824568
0.000913245506
0.000907977377
0.000789958525
0.000824058758
0.000826224321
0.000844034697
0.000867996498
0.000892793512
0.000915102158
0.000933332519
0.000947300955
0.000957272544
0.000964325884
0.000969090506
0.000972063832
0.000973599634
0.000973929809
0.000973192905
0.000971459555
0.000968751698
0.000965059369
0.000960358248
0.000954626813
0.000947868409
0.000940139847
0.00093159432
0.000922498021
0.000913304891
0.000904775851
0.000897791387
0.000790005325
0.000824213771
0.00082650073
0.000844465379
0.000868616429
0.000893591306
0.00091583105
0.000933828386
0.000947562389
0.000957721351
0.000964984536
0.000969975302
0.000973183797
0.000974954662
0.000975507729
0.000974965287
0.000973375385
0.00097072959
0.000966977206
0.000962039558
0.000955829795
0.000948275145
0.000939351777
0.000929146094
0.000917826637
0.000906057052
0.00089476543
0.000885213538
0.000790028467
0.000824339027
0.000826726702
0.000844789768
0.000868988317
0.00089393488
0.000916030341
0.000934032472
0.000947941711
0.000958308558
0.000965809052
0.000971062864
0.00097455548
0.000976625109
0.00097748216
0.000977234762
0.000975909509
0.000973466039
0.000969807272
0.000964788001
0.000958231306
0.000949947138
0.000939773581
0.000927560593
0.000913515864
0.00089825532
0.000882949765
0.000869355481
0.000790018582
0.000824373909
0.000826802189
0.000844888342
0.000869069181
0.000893967385
0.000916176341
0.000934330917
0.000948431239
0.000959027083
0.000966793811
0.000972350386
0.000976181148
0.000978621978
0.00097987855
0.000980049887
0.000979146085
0.000977098387
0.000973762918
0.000968920898
0.000962282263
0.000953493768
0.000942112473
0.000927739554
0.000910194754
0.000890000929
0.000868608205
0.000848346776
0.000789998038
0.000824332806
0.000826755686
0.000844848874
0.000869078654
0.000894061042
0.000916392666
0.000934710406
0.000949015748
0.00095985993
0.000967920374
0.000973818789
0.000978042751
0.000980931379
0.000982692653
0.000983425253
0.000983133256
0.000981731053
0.000979038536
0.000974767763
0.000968504509
0.000959689966
0.000947368172
0.000930555145
0.000908808503
0.00088212243
0.000850956466
0.000817850114
0.000789984082
0.000824300789
0.000826726562
0.000844845951
0.000869131346
0.000894203865
0.000916664158
0.000935152249
0.000949672585
0.000960780012
0.000969156818
0.000975431161
0.000980098815
0.000983508897
0.000985880961
0.000987326053
0.000987859482
0.000987401536
0.000985764156
0.000982621059
0.000977458245
0.000969310744
0.000956560929
0.000937743895
0.000911363184
0.000875742711
0.000829458935
0.000777873066
0.000789975894
0.00082428511
0.00082672093
0.000844871887
0.00086921655
0.000894381545
0.000916972238
0.000935632821
0.000950372141
0.0009617506
0.000970457941
0.000977132312
0.000982282682
0.000986275367
0.00098935206
0.000991651884
0.000993224911
0.000994032627
0.000993931552
0.000992633548
0.000989598611
0.000983331249
0.00097170207
0.000952880774
0.000922973343
0.000876768637
0.000809923239
0.000745541094
0.000789972504
0.000824282499
0.000826733158
0.000844918184
0.000869322268
0.000894577816
0.000917295454
0.000936124362
0.000951078937
0.000962726654
0.000971766743
0.000978850196
0.00098450337
0.000989116143
0.000992962279
0.0009962248
0.000999014259
0.00100137587
0.00100328235
0.00100460636
0.00100481751
0.00100209892
0.00099510805
0.000981264966
0.000955284988
0.000908232212
0.000830897774
0.000765188442
0.000754520348
0.000837737305
0.000885277763
0.000937747529
0.000987163156
0.00102956119
0.00106360748
0.00109018167
0.00111087593
0.00112714036
0.00114011855
0.00115065384
0.00115934251
0.00116660491
0.00117274246
0.00117797537
0.001182468
0.00118634634
0.00118970975
0.00119263868
0.00119520001
0.00119745059
0.00119943971
0.00120121069
0.0012028021
0.00120424843
0.00120558059
0.00120682617
0.000771501633
0.000773526134
0.000758521514
0.000767402522
0.000789782544
0.000819507115
0.00085160693
0.000882855796
0.000911600397
0.000937147844
0.000959392252
0.000978570325
0.00099505919
0.00100925276
0.00102150901
0.0010321336
0.0010413794
0.00104945316
0.00105652438
0.00106273362
0.00106819934
0.0010730232
0.001077294
0.00108109059
0.00108448389
0.00108753837
0.00109031294
0.00109286149
0.000791454131
0.000787121201
0.000747909742
0.000730793354
0.000728396644
0.000736331116
0.000750602434
0.00076806717
0.000786670036
0.00080511784
0.000822625075
0.000838784884
0.000853449955
0.00086662519
0.000878394874
0.000888878711
0.000898205885
0.000906501207
0.00091387921
0.000920442705
0.000926283418
0.000931483467
0.00093611701
0.000940251758
0.000943950234
0.000947270706
0.000950267842
0.000952993081
0.00080136496
0.000808450728
0.000768051893
0.000744583738
0.000732836431
0.000729877699
0.000733015462
0.000739980507
0.000749199997
0.000759603772
0.000770437367
0.000781190263
0.000791543551
0.000801313442
0.000810406483
0.000818788599
0.000826463019
0.000833454736
0.000839800412
0.000845542292
0.000850724748
0.000855392453
0.000859589558
0.000863359423
0.000866744623
0.000869787044
0.000872527939
0.000875007912
0.000805283019
0.000820725068
0.00078416837
0.000761968233
0.000749422123
0.000743740759
0.00074267173
0.000744522805
0.000748237434
0.000753151037
0.000758793497
0.000764819939
0.000770981522
0.000777099862
0.000783048386
0.000788740428
0.000794120056
0.000799154253
0.000803826679
0.00080813302
0.000812077618
0.000815671095
0.000818928743
0.000821869473
0.000824515143
0.00082689009
0.000829020763
0.000830935364
0.000807384334
0.000827655369
0.000794254373
0.000774205858
0.000763072975
0.000757941729
0.00075645723
0.000756995924
0.000758677449
0.000761057617
0.000763887558
0.000767010489
0.0007703168
0.000773719591
0.000777144532
0.000780527964
0.000783817044
0.000786969509
0.000789952959
0.000792743897
0.000795326677
0.000797692487
0.000799838466
0.000801767015
0.000803485249
0.000805004546
0.000806340136
0.000807510662
0.000808668935
0.0008319305
0.000800751582
0.000782421539
0.000772688478
0.000768642156
0.000767829641
0.000768566433
0.000769973091
0.000771653747
0.000773440727
0.000775272673
0.000777131954
0.000779009928
0.000780893128
0.000782761538
0.000784590948
0.000786355791
0.000788031497
0.000789596182
0.000791031695
0.000792324182
0.000793464378
0.00079444774
0.000795274483
0.000795949531
0.00079648237
0.000796886765
0.000809515163
0.000834777732
0.00080519684
0.000788191904
0.000779590089
0.0007765108
0.000776462853
0.000777723541
0.000779400202
0.000781102942
0.00078268538
0.000784119339
0.00078542614
0.000786636216
0.000787771695
0.00078884272
0.000789849058
0.000790783069
0.000791632756
0.000792384354
0.00079302433
0.000793540857
0.000793924902
0.000794171043
0.000794278079
0.00079424944
0.000794093385
0.000793822963
0.000810116078
0.000836795377
0.000808392519
0.000792424992
0.000784744997
0.000782482761
0.000783123369
0.000784919952
0.000786973512
0.000788900327
0.000790566781
0.000791961576
0.000793124735
0.000794105174
0.000794942121
0.000795660814
0.000796273743
0.000796783504
0.000797185905
0.000797472794
0.000797634377
0.000797661075
0.00079754504
0.000797281407
0.000796869314
0.000796312705
0.000795620836
0.000794808441
0.000810564919
0.000838293896
0.0008107835
0.000795639532
0.000788722017
0.000787158837
0.000788412391
0.000790713208
0.000793154525
0.000795357317
0.00079719919
0.000798682865
0.000799862645
0.00080080031
0.000801545867
0.000802133166
0.000802581298
0.000802897633
0.00080308116
0.000803125545
0.000803021711
0.000802760001
0.000802332029
0.000801732302
0.000800959637
0.000800018329
0.000798918994
0.000797678969
0.000810912927
0.000839449676
0.000812634388
0.000798153735
0.000791872571
0.000790912146
0.000792713319
0.000795484447
0.000798307914
0.000800805158
0.00080286135
0.00080449032
0.000805758335
0.000806738132
0.000807488707
0.000808050679
0.000808447746
0.000808689938
0.00080877722
0.000808702826
0.00080845617
0.000808025351
0.000807399423
0.000806570449
0.000805535455
0.000803920423
0.00080225577
0.000800619756
0.000811191069
0.000840368821
0.000814108686
0.000800170562
0.000794425074
0.000793986966
0.000796278006
0.000799485929
0.000802680689
0.000805480667
0.000807774737
0.000809584392
0.000810985148
0.000812058742
0.000812871833
0.000813470837
0.000813883242
0.000814120886
0.000814183696
0.000814063245
0.00081374596
0.000813215985
0.00081156568
0.000809776308
0.00080791877
0.000805641177
0.000803496076
0.000801574708
0.000811418733
0.000841117631
0.000815310584
0.000801823052
0.000796532825
0.000796549838
0.000799279841
0.000802892198
0.000806444265
0.000809549357
0.00081209721
0.000814114057
0.00081568211
0.000816890103
0.000817810894
0.00081849566
0.000818974875
0.00081926144
0.000819354389
0.000819162851
0.000817608533
0.000815894049
0.000813142665
0.000810377271
0.000807699942
0.000805165995
0.000802830018
0.000800743288
0.000811608512
0.000841739152
0.000816308588
0.000803200572
0.000798301055
0.000798717176
0.000801841722
0.000805828143
0.000809722
0.00081313073
0.000815943104
0.000818188071
0.000819952576
0.000821330655
0.000822400084
0.000823215787
0.000823810403
0.000824197071
0.000823213751
0.000821705496
0.000818843132
0.000815877265
0.000812864911
0.000809866893
0.000806948078
0.000804176319
0.000801620098
0.000799344928
0.000811768876
0.000842262245
0.000817148965
0.000804364451
0.000799803352
0.000800571762
0.000804052242
0.000808384855
0.000812604669
0.0008163131
0.000819397125
0.00082188722
0.000823873608
0.000825454551
0.000826711867
0.000827703409
0.00082784696
0.000826930533
0.000824568372
0.000821731573
0.000818692896
0.000815510222
0.000812246544
0.000808971711
0.000805762871
0.000802703256
0.000799879127
0.00079737484
0.000811905661
0.000842706743
0.000817863692
0.000805357602
0.000801091948
0.000802173145
0.000805975944
0.000810629438
0.000815159591
0.000819162254
0.000822522539
0.000825271671
0.000827502555
0.000829317251
0.000830801008
0.000830739647
0.000829598042
0.00082727987
0.000824598631
0.000821608841
0.000818365523
0.000814928496
0.000811366044
0.000807757477