/*--------------------------------*- C++ -*----------------------------------*\
| =========                 |                                                 |
| \\      /  F ield         | foam-extend: Open Source CFD                    |
|  \\    /   O peration     | Version:     4.1                                |
|   \\  /    A nd           | Web:         http://www.foam-extend.org         |
|    \\/     M anipulation  |                                                 |
\*---------------------------------------------------------------------------*/
FoamFile
{
    version     2.0;
    format      ascii;
    class       volVectorField;
    location    "0.65";
    object      U;
}
// * * * * * * * * * * * * * * * * * * * * * * * * * * * * * * * * * * * * * //

dimensions      [0 1 -1 0 0 0 0];

internalField   nonuniform List<vector> 
35840
(
(3.94086012 0.26852871 0.261844464)
(3.20795279 0.371832144 0.357379801)
(2.43829436 0.266507897 0.249860509)
(1.72034435 0.156946404 0.141978175)
(1.29366334 0.0888188667 0.0772226793)
(1.052174 0.0517273579 0.0439384927)
(0.893412207 0.0312082433 0.0270962931)
(0.785195995 0.0189972994 0.0180807673)
(0.711665357 0.0115263087 0.0131433601)
(0.660005717 0.00695163825 0.0104207112)
(0.622011124 0.00409764443 0.00881236502)
(0.593015999 0.00226589326 0.0077336405)
(0.570235949 0.00106610846 0.00691322567)
(0.55191447 0.00027066567 0.00622928528)
(0.536917711 -0.000259769077 0.00562712314)
(0.524489695 -0.000611501881 0.00508316873)
(0.514100741 -0.000838496408 0.00458735403)
(0.505357867 -0.000975916596 0.00413425468)
(0.497962523 -0.0010471425 0.0037200547)
(0.4916744 -0.00106725324 0.00334156127)
(0.486294152 -0.00104645716 0.00299574688)
(0.481652777 -0.000992283319 0.00267986912)
(0.477604237 -0.000910672625 0.00239163309)
(0.474020856 -0.000806573161 0.00212919041)
(0.47079023 -0.000684404407 0.00189111385)
(0.467813311 -0.000548378791 0.00167635184)
(0.465003301 -0.000402671359 0.00148416005)
(0.462285131 -0.000251456204 0.00131401715)
(4.52124924 0.409953978 0.331399871)
(4.20224492 0.63813889 0.509000095)
(3.63676046 0.543499726 0.407274453)
(2.9428888 0.391295803 0.261504856)
(2.41564178 0.267510936 0.152217796)
(2.06111409 0.18155576 0.0859692187)
(1.8085784 0.124051947 0.0502537725)
(1.62430685 0.085090836 0.0317444701)
(1.49022975 0.0584916857 0.0220725493)
(1.39078478 0.0403583088 0.0169154805)
(1.31473326 0.0279157793 0.013997708)
(1.2550491 0.0192531779 0.0121400603)
(1.20723377 0.0131235493 0.0107939163)
(1.16825715 0.00871653654 0.00971942619)
(1.13604124 0.00550155269 0.00880786367)
(1.10913319 0.00313146227 0.00800710887)
(1.08648203 0.00137840291 0.00729049985)
(1.06730109 9.02927313e-05 0.00664251906)
(1.05097446 -0.000836209124 0.00605223638)
(1.03700838 -0.00147249141 0.00551074045)
(1.02499805 -0.00186951939 0.00501056822)
(1.01460356 -0.00206507721 0.00454579767)
(1.0055318 -0.00208859839 0.00411198048)
(0.997527067 -0.00196453114 0.00370587106)
(0.990364297 -0.00171450732 0.00332525278)
(0.98384457 -0.00135879355 0.00296881008)
(0.977792374 -0.000917188418 0.00263599277)
(0.972054142 -0.000409456197 0.00232685071)
(4.44213344 0.221362592 0.337951866)
(4.08278402 0.436519262 0.518819009)
(3.6571369 0.463121477 0.41808921)
(3.1371223 0.408862749 0.275888888)
(2.71978208 0.331900679 0.166457643)
(2.42181776 0.257615114 0.0961043902)
(2.1980958 0.195691131 0.0564744265)
(2.02634573 0.147075008 0.0358930567)
(1.89483937 0.109827161 0.0253539712)
(1.7924189 0.0816912977 0.0198158513)
(1.71053245 0.0605933194 0.0166839377)
(1.64375395 0.0447814897 0.014643954)
(1.58853721 0.032878768 0.0130979334)
(1.54237699 0.0238489897 0.0118070991)
(1.50345347 0.0169358134 0.0106793627)
(1.47041942 0.0116010218 0.00967648154)
(1.44224636 0.00746765367 0.00877952358)
(1.4181249 0.00427309149 0.00797538821)
(1.39740121 0.00183353361 0.00725198416)
(1.3795365 1.81518848e-05 0.00659749859)
(1.36407452 -0.00126825126 0.00600087656)
(1.35062432 -0.00209735767 0.00545237067)
(1.33884579 -0.00252567209 0.00494393835)
(1.32843848 -0.00260061586 0.00446932893)
(1.31913491 -0.00236480591 0.00402395139)
(1.31069602 -0.00185891209 0.00360469994)
(1.30290851 -0.00112346487 0.00320975238)
(1.2955833 -0.000199835403 0.00283833305)
(4.4137073 0.123371104 0.337929067)
(3.97527241 0.285998804 0.516843128)
(3.52614418 0.34694783 0.410944694)
(3.04826823 0.341772299 0.267055835)
(2.69650634 0.304742969 0.158688046)
(2.46049694 0.256442815 0.0893117676)
(2.28810463 0.208565113 0.0503488782)
(2.1560101 0.166292644 0.0306482976)
(2.05356191 0.13090461 0.0211763591)
(1.97169095 0.102079869 0.0166824718)
(1.9039089 0.0789694856 0.014464789)
(1.84651917 0.060596815 0.0131659311)
(1.79735926 0.0460343039 0.0121765162)
(1.75497342 0.0344813907 0.0112767864)
(1.71829803 0.0252886848 0.0104100761)
(1.68651165 0.0179530234 0.00957421116)
(1.65894248 0.0120970801 0.00878021728)
(1.63501876 0.00744375804 0.00803761266)
(1.61424378 0.00379154759 0.007350257)
(1.59618093 0.000993765081 0.00671688637)
(1.58044223 -0.00105796007 0.00613295843)
(1.56668011 -0.00244654345 0.00559269298)
(1.55458084 -0.00323852611 0.00509012082)
(1.54385932 -0.00349108412 0.00461979806)
(1.53425557 -0.0032574205 0.00417724697)
(1.52553247 -0.00259051206 0.00375912697)
(1.51747475 -0.00154550763 0.00336323444)
(1.50988878 -0.000181009678 0.00298839647)
(4.40562837 0.0838885024 0.338530064)
(3.92709497 0.20587609 0.518666881)
(3.43458631 0.264643657 0.409525222)
(2.9427445 0.274652962 0.261033264)
(2.60543869 0.257688066 0.150310809)
(2.39688942 0.22799518 0.0805995506)
(2.25547318 0.194249711 0.0421470584)
(2.15330363 0.161532077 0.0232697265)
(2.07740565 0.132123603 0.0147409675)
(2.01793163 0.106674975 0.0111879445)
(1.96847655 0.085115121 0.00984625727)
(1.92578855 0.0670831721 0.00933154146)
(1.88828268 0.052116521 0.00901853011)
(1.85509269 0.0397456734 0.00868308984)
(1.82568618 0.0295441132 0.00827621002)
(1.79968529 0.021150496 0.0078099295)
(1.77677106 0.0142732714 0.00731119158)
(1.75664353 0.00868530125 0.00680469429)
(1.73901121 0.00421378514 0.00630759348)
(1.72359021 0.000728960805 0.00582949049)
(1.71010555 -0.00186739847 0.00537433986)
(1.69829368 -0.00365177085 0.00494294758)
(1.68790161 -0.00468686595 0.00453414714)
(1.67868838 -0.00502867271 0.0041458602)
(1.67042562 -0.00473206601 0.00377590262)
(1.66289858 -0.00385494499 0.00342244036)
(1.65590758 -0.00246101621 0.0030842093)
(1.64926986 -0.000621267779 0.00276058891)
(4.40178209 0.0613580112 0.339164317)
(3.90242051 0.15322494 0.520512626)
(3.38075116 0.204413465 0.410097522)
(2.86923028 0.221088404 0.258746692)
(2.52752758 0.215763213 0.145978284)
(2.32479898 0.198108857 0.0755283778)
(2.19492189 0.1746767 0.0370209396)
(2.10726695 0.149849277 0.0183390126)
(2.04675606 0.126064556 0.0101159986)
(2.0021867 0.104390155 0.00691291573)
(1.96646871 0.0851706795 0.00592966736)
(1.93606005 0.0684090775 0.00577171469)
(1.90931239 0.0539485692 0.0058076987)
(1.8854347 0.0415667749 0.00580462419)
(1.86404446 0.0310285255 0.00570595601)
(1.84494173 0.0221144665 0.00551975209)
(1.82798458 0.0146346371 0.00527200025)
(1.81303392 0.00843282637 0.00498855703)
(1.79993654 0.0033853754 0.00468907278)
(1.78852214 -0.000603263524 0.00438616315)
(1.77860927 -0.00360712439 0.00408719406)
(1.77000541 -0.00568488871 0.00379606357)
(1.76251315 -0.00688650648 0.0035141905)
(1.75593321 -0.00725961812 0.00324162923)
(1.75006774 -0.00685495647 0.00297786616)
(1.74472382 -0.0057306617 0.0027222883)
(1.73971715 -0.00395535427 0.00247445603)
(1.73487594 -0.00160976292 0.00223424915)
(4.39956884 0.0466855286 0.33965301)
(3.88830846 0.117716946 0.521952417)
(3.34833006 0.161233151 0.411267654)
(2.8210559 0.180137355 0.258564267)
(2.47124822 0.181413627 0.144561737)
(2.26671678 0.171537881 0.0734991903)
(2.13928659 0.155452967 0.0347859788)
(2.05697302 0.13672748 0.0160481575)
(2.00349207 0.117604133 0.00782443678)
(1.96670908 0.0992903834 0.00464246239)
(1.93895019 0.0823609318 0.00368815873)
(1.91631898 0.0670434636 0.0035707077)
(1.89695196 0.0533802298 0.00366579281)
(1.87994312 0.041319203 0.00374124931)
(1.86486814 0.0307667252 0.00373673019)
(1.85153381 0.0216176173 0.00365531031)
(1.83983347 0.0137718261 0.003518351)
(1.82967738 0.0071427992 0.00334794511)
(1.82096574 0.00166058624 0.00316100782)
(1.81357979 -0.00272920028 0.00296847691)
(1.80738322 -0.00606833522 0.00277697896)
(1.80222126 -0.00838989558 0.00258998093)
(1.79792586 -0.0097242078 0.00240877441)
(1.79431902 -0.0101045337 0.00223346864)
(1.79121692 -0.00957238858 0.00206363636)
(1.78843464 -0.00818216902 0.00189869053)
(1.78579135 -0.00600461448 0.00173810917)
(1.78311604 -0.00312865635 0.00158156097)
(4.39821817 0.0366423021 0.340042412)
(3.87962287 0.0929653746 0.523108094)
(3.32764153 0.12953864 0.412493894)
(2.78864408 0.148152677 0.259131271)
(2.43118674 0.152908465 0.144406529)
(2.22295768 0.148083408 0.0729490091)
(2.09471494 0.137285095 0.0341014314)
(2.01371016 0.123289744 0.0153174414)
(1.96296655 0.108005432 0.00705752878)
(1.92977865 0.0926127553 0.00382869778)
(1.90609241 0.0777902561 0.00281309125)
(1.8877656 0.0639021678 0.00262796944)
(1.87276713 0.0511254893 0.00266122037)
(1.86007744 0.0395304975 0.00268883389)
(1.84920047 0.0291299273 0.00265344179)
(1.83990297 0.0199087568 0.00255798223)
(1.83206105 0.0118422196 0.00242215674)
(1.82558301 0.00490626416 0.00226575258)
(1.82037557 -0.0009172604 0.00210324746)
(1.81633268 -0.00563962899 0.00194367009)
(1.81332784 -0.00926591793 0.00179207286)
(1.81121575 -0.0117985454 0.00165049186)
(1.8098335 -0.0132425468 0.00151913912)
(1.80900335 -0.0136111848 0.0013972951)
(1.80853682 -0.0129317514 0.00128382206)
(1.80823999 -0.0112509178 0.00117747989)
(1.80791997 -0.00863891479 0.00107708658)
(1.80739252 -0.0051918426 0.000981581703)
(4.3973247 0.0293642103 0.340348902)
(3.87390334 0.0747756663 0.52400371)
(3.31376544 0.105378465 0.413533911)
(2.76615366 0.122576243 0.259830793)
(2.40228093 0.128944061 0.144686539)
(2.19014943 0.127294434 0.0729953599)
(2.0600035 0.12020257 0.0340815373)
(1.97865003 0.109777067 0.0152873739)
(1.92867698 0.0975736142 0.0070145506)
(1.89699958 0.0846551998 0.00375450259)
(1.87529918 0.0717112082 0.0026867871)
(1.85926008 0.0591705355 0.0024339317)
(1.84673376 0.04729226 0.00239343642)
(1.83661957 0.0362303579 0.00234964744)
(1.82836651 0.0260759691 0.00225023671)
(1.82170571 0.016884613 0.00210056981)
(1.81649197 0.00869394355 0.00192115253)
(1.81262213 0.00153498557 0.0017315748)
(1.80999807 -0.00456189922 0.00154568274)
(1.80851073 -0.00956432017 0.00137186005)
(1.8080316 -0.013438054 0.00121426436)
(1.80841093 -0.0161506933 0.00107410511)
(1.80947732 -0.0176767147 0.000950918129)
(1.81103962 -0.0180037773 0.000843395915)
(1.81289076 -0.0171397151 0.000749821939)
(1.81481358 -0.0151193223 0.000668397225)
(1.81658897 -0.0120098011 0.000597343028)
(1.81800557 -0.00791386081 0.000534867001)
(4.39670044 0.0238453042 0.340586063)
(3.86994715 0.060867724 0.524689575)
(3.30408644 0.0864450065 0.414367861)
(2.75009684 0.101784554 0.260482089)
(2.38101809 0.108617375 0.14508588)
(2.16527873 0.108819225 0.073249256)
(2.03292522 0.10421526 0.0342967686)
(1.95052583 0.096385238 0.0155034735)
(1.90039416 0.0865643335 0.00723058822)
(1.86918639 0.0756621724 0.00395721621)
(1.8483901 0.0643223238 0.00285987699)
(1.83355585 0.0529856931 0.00256323707)
(1.82244354 0.0419508452 0.00247037427)
(1.81389035 0.0314226151 0.00237126235)
(1.8073039 0.0215461395 0.00221751416)
(1.80238914 0.0124300923 0.0020168529)
(1.79898551 0.00416288683 0.00179107387)
(1.79698153 -0.00317657161 0.00156036143)
(1.79627531 -0.00951242702 0.00133895682)
(1.79675426 -0.0147685722 0.00113536001)
(1.7982857 -0.0188692888 0.000953554163)
(1.80071162 -0.0217428708 0.000794627036)
(1.80384662 -0.0233274733 0.000658055286)
(1.80747874 -0.0235788929 0.000542478125)
(1.81137291 -0.0224794959 0.000446099665)
(1.81527759 -0.0200472676 0.000366882733)
(1.81893447 -0.0163434956 0.00030272394)
(1.82209132 -0.0114775406 0.000251608473)
(4.396248 0.0195156311 0.34076889)
(3.86710457 0.0498965421 0.525216537)
(3.29710145 0.0712404973 0.415026359)
(2.73831566 0.0846033804 0.261036665)
(2.36505196 0.0912206674 0.145480423)
(2.14614141 0.092373664 0.0735474873)
(2.01159068 0.0893566094 0.034567661)
(1.92785905 0.0833425943 0.015774929)
(1.87709779 0.0752953285 0.00750365856)
(1.84579271 0.0659686574 0.00422398382)
(1.82529354 0.0559331787 0.00310990281)
(1.81104823 0.045608872 0.00278688424)
(1.80074283 0.0353032631 0.00266101605)
(1.79316344 0.0252463957 0.00252552345)
(1.78768405 0.0156171319 0.00233439435)
(1.78398918 0.00656218933 0.00209681228)
(1.78190749 -0.00178991282 0.00183540081)
(1.78132347 -0.00931889992 0.00157097699)
(1.78213429 -0.0159061234 0.00131829924)
(1.78422734 -0.0214317062 0.00108598924)
(1.78746708 -0.0257754893 0.000878199351)
(1.79168718 -0.0288210982 0.000696283414)
(1.79668634 -0.0304632244 0.00053993038)
(1.80222708 -0.0306176839 0.000407921525)
(1.80803841 -0.0292333788 0.000298638274)
(1.81382308 -0.0263048513 0.000210281128)
(1.8192698 -0.0218835902 0.000140949226)
(1.82407009 -0.0160858066 8.86517764e-05)
(4.3959095 0.0160263381 0.340910209)
(3.86499351 0.0410180312 0.525624218)
(3.29190325 0.0587706238 0.415544716)
(2.72944259 0.0701979108 0.2614922)
(2.3528076 0.0762184753 0.145829444)
(2.13116631 0.0777281606 0.0738305062)
(1.99455479 0.0756487737 0.0348298486)
(1.90939885 0.0708471164 0.0160350767)
(1.85776272 0.0640661793 0.00776304192)
(1.82602654 0.0559171719 0.0044779397)
(1.80544752 0.0468887182 0.00335210503)
(1.7913994 0.0373616264 0.00301144826)
(1.78151171 0.0276322344 0.00286379795)
(1.77453032 0.0179370469 0.00270422185)
(1.76980274 0.00847270629 0.0024879877)
(1.76699825 -0.000588782978 0.00222496172)
(1.76593912 -0.00908806788 0.00193824482)
(1.76651006 -0.0168690989 0.00164909714)
(1.76861191 -0.0237729298 0.00137237401)
(1.77213571 -0.0296352019 0.00111678016)
(1.77694623 -0.0342871971 0.000886615096)
(1.78287071 -0.0375608448 0.000683434249)
(1.7896911 -0.0392978942 0.000507192068)
(1.79714029 -0.0393630668 0.000357041428)
(1.80490306 -0.0376604414 0.000231779672)
(1.81262363 -0.0341513934 0.000130041316)
(1.8199205 -0.0288715538 5.03392948e-05)
(1.82640889 -0.0219434248 -8.99868014e-06)
(4.39564894 0.0131546037 0.341020271)
(3.8633786 0.0336876679 0.525943032)
(3.28792336 0.0483702487 0.415955208)
(2.72258774 0.057976243 0.261862741)
(2.34321046 0.0632020838 0.14612615)
(2.11922906 0.0646846519 0.0740806709)
(1.9807333 0.0630839905 0.0350637768)
(1.89415534 0.0590386664 0.0162651179)
(1.84151997 0.0531158888 0.0079900222)
(1.80914658 0.0458025233 0.00469893128)
(1.78823452 0.0375058983 0.00356318641)
(1.77410795 0.0285589094 0.0032090574)
(1.76435689 0.0192341324 0.00304549771)
(1.75769876 0.00976127264 0.00286865064)
(1.75346312 0.000342305077 0.00263440062)
(1.75131067 -0.00883607055 0.00235299862)
(1.75106373 -0.0175915646 0.00204787471)
(1.75261336 -0.0257374949 0.00174028537)
(1.75587009 -0.0330767607 0.00144493813)
(1.76073473 -0.0393989647 0.00117050629)
(1.76707804 -0.0444814685 0.000921353411)
(1.77472482 -0.048095279 0.000699177251)
(1.78344155 -0.0500164512 0.000504181151)
(1.79292816 -0.05004326 0.00033588878)
(1.80281607 -0.0480185944 0.000193571737)
(1.81267491 -0.0438557415 7.64522146e-05)
(1.8220303 -0.0375641609 -1.62896097e-05)
(1.83039344 -0.0292702305 -8.56786169e-05)
(4.39544303 0.0107533001 0.341107069)
(3.86210887 0.0275431063 0.526195993)
(3.2847929 0.0395837845 0.416284129)
(2.71715735 0.0475123519 0.262165015)
(2.33551676 0.0518568573 0.146375205)
(2.10952087 0.0530725576 0.0742959979)
(1.96931642 0.0516331102 0.0352665018)
(1.88136032 0.0480070401 0.0164633691)
(1.82766632 0.0426226395 0.00818408627)
(1.79452278 0.0358608829 0.00488676434)
(1.77309633 0.028052963 0.00374219661)
(1.75868131 0.019480689 0.00337697858)
(1.74884348 0.0103852676 0.00320083526)
(1.74228346 0.000979986565 0.00301051443)
(1.7383222 -0.0085378172 0.00276231471)
(1.7366207 -0.0179756401 0.00246684653)
(1.73700971 -0.0271355759 0.00214749464)
(1.73939502 -0.0358054899 0.00182519102)
(1.74370601 -0.0437521221 0.00151444234)
(1.74986307 -0.0507171123 0.00122379973)
(1.75775248 -0.0564173716 0.000957583963)
(1.76720466 -0.0605513042 0.000717537545)
(1.77797522 -0.0628123434 0.000504018366)
(1.78973003 -0.0629108981 0.000316859351)
(1.80203773 -0.0606047321 0.000155856804)
(1.81437379 -0.0557360234 2.09985588e-05)
(1.82614066 -0.0482707341 -8.75565825e-05)
(1.83670669 -0.0383328955 -0.000169765116)
(4.39527623 0.00872238146 0.341176699)
(3.86108421 0.0223364168 0.526400274)
(3.28226544 0.0320927406 0.416551819)
(2.71274684 0.0384969629 0.262414081)
(2.32920497 0.0419419113 0.146584467)
(2.10145642 0.0427495008 0.0744801772)
(1.95969934 0.0412578016 0.0354410012)
(1.87042183 0.0378076025 0.0166336302)
(1.81564231 0.0327172242 0.00834996886)
(1.78163691 0.0262781437 0.00504669612)
(1.75955676 0.0187520006 0.00389433576)
(1.74468137 0.0103691714 0.0035197562)
(1.73456457 0.00133458382 0.00333318278)
(1.72790062 -0.00816239898 0.00313187064)
(1.72401192 -0.0179373591 0.00287261894)
(1.72256946 -0.0278003453 0.00256602741)
(1.72342214 -0.0375455353 0.00223505693)
(1.7265017 -0.0469411783 0.00190031321)
(1.73176931 -0.0557206132 0.00157605824)
(1.73917924 -0.0635759641 0.00127063065)
(1.74864828 -0.0701564314 0.000988150326)
(1.76002662 -0.0750735555 0.000730226818)
(1.77306951 -0.0779161151 0.000497225369)
(1.78741211 -0.0782771606 0.000289186746)
(1.8025522 -0.0757945266 0.000106437872)
(1.81784785 -0.0702037518 -5.00724533e-05)
(1.83253814 -0.0613982428 -0.000178763284)
(1.84579337 -0.049486074 -0.000277852684)
(4.39513791 0.00699215725 0.341233748)
(3.86023652 0.01789411 0.526568599)
(3.2801726 0.0256707267 0.416773665)
(2.70907556 0.0307039009 0.262622284)
(2.32390521 0.0332737131 0.146761825)
(2.09460971 0.033599926 0.0746383734)
(1.95143008 0.0319193314 0.0355918044)
(1.86088572 0.028475304 0.016780795)
(1.80500734 0.0234982604 0.00849307568)
(1.77006982 0.0172037408 0.00518444416)
(1.74721997 0.00979019573 0.00402530165)
(1.73173264 0.00143707342 0.00364269192)
(1.72115907 -0.00769073509 0.00344738249)
(1.71419651 -0.0174339667 0.00323734374)
(1.71017799 -0.0276290431 0.00296946116)
(1.70879374 -0.0380976261 0.00265389665)
(1.70992206 -0.0486349971 0.0023132228)
(1.71353437 -0.0589973938 0.00196775396)
(1.7196403 -0.0688895587 0.00163140569)
(1.72824788 -0.0779542024 0.00131212182)
(1.73932679 -0.0857659224 0.00101363561)
(1.75276981 -0.0918330881 0.000737190961)
(1.76835174 -0.0956120728 0.000482889698)
(1.78568855 -0.0965386309 0.000250742631)
(1.80420349 -0.0940803668 4.15038622e-05)
(1.8231113 -0.0878113305 -0.000142729114)
(1.84143454 -0.077503653 -0.000298319779)
(1.85806613 -0.0632218525 -0.000420683648)
(4.39502068 0.00551308728 0.341281627)
(3.85951863 0.0140924354 0.526710339)
(3.27839735 0.02015438 0.416961147)
(2.70594637 0.02396651 0.262799269)
(2.31935304 0.0257129645 0.146914058)
(2.08866984 0.0255324721 0.0747755416)
(1.94417158 0.0235840055 0.0357233227)
(1.85240586 0.0200351404 0.0169093561)
(1.79541817 0.0150449162 0.00861808139)
(1.7594877 0.00876368929 0.00530472221)
(1.735763 0.00133186482 0.00413959128)
(1.71952047 -0.00712169241 0.0037501348)
(1.70831573 -0.01647517 0.00354800511)
(1.70085599 -0.0266054822 0.00333138813)
(1.69649188 -0.0373787455 0.00305679604)
(1.69494182 -0.0486389153 0.00273403742)
(1.69612519 -0.0601937351 0.00238542878)
(1.70006874 -0.0717984065 0.0020308818)
(1.70685117 -0.0831378009 0.00168382247)
(1.71656058 -0.0938091078 0.00135163757)
(1.72925124 -0.103307981 0.00103742869)
(1.74489379 -0.111022905 0.000741729408)
(1.76331696 -0.116244562 0.000463927325)
(1.78414343 -0.11819859 0.000203514744)
(1.80672851 -0.116110401 -3.86857688e-05)
(1.830118 -0.10930804 -0.000259360443)
(1.85304883 -0.0973606103 -0.000451994094)
(1.87402105 -0.0802354243 -0.000607608425)
(4.39491933 0.00424928639 0.341322843)
(3.85889753 0.0108415256 0.526832339)
(3.27685767 0.0154240852 0.41712272)
(2.70321992 0.0181609749 0.262952343)
(2.31535917 0.0191541632 0.147046586)
(2.08341072 0.0184765215 0.0748958537)
(1.93767452 0.0162256257 0.0358392737)
(1.84472186 0.0125087614 0.0170229407)
(1.78661219 0.00742593632 0.00872853184)
(1.74963028 0.00107032581 0.00541082446)
(1.72492863 -0.00647189786 0.00424046423)
(1.70778881 -0.0151220234 0.00384580753)
(1.69577446 -0.0248045075 0.00363875052)
(1.68760604 -0.0354395631 0.0034172226)
(1.6826567 -0.0469333866 0.00313753935)
(1.68068043 -0.0591651586 0.00280933349)
(1.68164894 -0.0719702223 0.00245457421)
(1.68566079 -0.085118901 0.00209270527)
(1.69288771 -0.0982914323 0.00173656669)
(1.70353119 -0.111050577 0.00139282958)
(1.71777353 -0.122815074 0.0010636832)
(1.73571549 -0.132839976 0.000748486805)
(1.75729611 -0.140213485 0.000445220231)
(1.78219518 -0.143883842 0.000151969603)
(1.80972776 -0.142732969 -0.000131235865)
(1.8387532 -0.135713098 -0.000400230329)
(1.86763576 -0.122052946 -0.000644893289)
(1.89431575 -0.101519566 -0.000849241403)
(4.39483022 0.0031742251 0.341359208)
(3.85835013 0.00807482234 0.526939536)
(3.27549613 0.0113907449 0.417264518)
(2.70079813 0.0131941711 0.2630869)
(2.3117892 0.013517072 0.14716353)
(2.07867015 0.0123781774 0.0750025571)
(1.93175815 0.00982565357 0.0359425046)
(1.83764295 0.00591788564 0.0171241369)
(1.77839462 0.000704701772 0.00882665421)
(1.74030191 -0.00577178951 0.00550501449)
(1.71452141 -0.0134761649 0.00433086308)
(1.69633988 -0.0223797839 0.00393264285)
(1.68332829 -0.0324575837 0.00372198837)
(1.67422065 -0.0436812182 0.0034968882)
(1.66841442 -0.0560088274 0.00321364907)
(1.66570354 -0.0693708928 0.00288168008)
(1.66612063 -0.0836504781 0.00252257798)
(1.66985182 -0.0986565483 0.00215529228)
(1.67718817 -0.114089848 0.00179205841)
(1.68848449 -0.129501748 0.00143874071)
(1.70410795 -0.144248705 0.00109635448)
(1.72436431 -0.157448975 0.000762555052)
(1.74939177 -0.167953874 0.000432979633)
(1.77901807 -0.174353968 0.000102906492)
(1.81258666 -0.175049142 -0.000230095562)
(1.84877857 -0.16841819 -0.000562433332)
(1.88548418 -0.153117684 -0.000880066833)
(1.91984336 -0.12851542 -0.00115591658)
(4.39475082 0.00226775993 0.341391998)
(3.85786051 0.00574172714 0.527035413)
(3.27427318 0.0079863407 0.417390889)
(2.69861335 0.00899449513 0.263206795)
(2.30855008 0.00873954494 0.147267873)
(2.07433551 0.00719595591 0.0750979826)
(1.9262968 0.00437185529 0.0360348701)
(1.83103595 0.000284509086 0.0172142702)
(1.77062919 -0.00505930566 0.00891394279)
(1.73136673 -0.0116627205 0.00558965907)
(1.70440615 -0.0195380879 0.00441313568)
(1.68503521 -0.0287076686 0.00401232699)
(1.67082831 -0.039201424 0.00379907358)
(1.6605295 -0.0510508709 0.00357158639)
(1.65355776 -0.0642795533 0.00328613156)
(1.64974624 -0.078888617 0.00295189551)
(1.64919224 -0.0948349016 0.00259012906)
(1.65218154 -0.111999038 0.00221935311)
(1.65914964 -0.130141185 0.00185126653)
(1.67064918 -0.148842733 0.0014909484)
(1.68730303 -0.167434638 0.00113815048)
(1.70972451 -0.184917422 0.000788408035)
(1.73838568 -0.199886436 0.000433984727)
(1.77341782 -0.210490041 6.5409483e-05)
(1.81433706 -0.214466295 -0.000325135782)
(1.85971645 -0.20932771 -0.000738098962)
(1.90688627 -0.19277053 -0.00115489595)
(1.95183197 -0.163377527 -0.00153047795)
(4.39467944 0.00151396444 0.341422079)
(3.85741811 0.00380227931 0.527122348)
(3.27316272 0.0051569272 0.417504803)
(2.69662101 0.00550469104 0.263314653)
(2.3055809 0.00477139141 0.147361616)
(2.07033396 0.00289662147 0.0751834819)
(1.92120954 -0.000145242512 0.0361169182)
(1.82481626 -0.0043714621 0.0172942842)
(1.76323302 -0.00981084094 0.0089923503)
(1.72274611 -0.0165067025 0.00566671483)
(1.69450737 -0.0245169837 0.00448850098)
(1.67379898 -0.0339153194 0.00408576852)
(1.65819146 -0.0447902823 0.00387071257)
(1.64643043 -0.0572414408 0.00364173061)
(1.63794747 -0.0713719843 0.00335503735)
(1.63260687 -0.0872757931 0.00301961562)
(1.6305662 -0.105015451 0.00265643532)
(1.63221432 -0.124587018 0.00228370653)
(1.63814932 -0.145866607 0.00191274637)
(1.64916515 -0.168533498 0.00154808697)
(1.66622189 -0.191965588 0.00118852509)
(1.69037334 -0.215106941 0.000827617279)
(1.72262033 -0.236317943 0.000453762209)
(1.76365178 -0.253238762 5.07296768e-05)
(1.8134319 -0.262730133 -0.000399697005)
(1.87064434 -0.261018807 -0.000909574156)
(1.93203692 -0.244196326 -0.00145801456)
(1.99198103 -0.209334454 -0.00197455559)
(4.39461511 0.000899307807 0.341450064)
(3.85701663 0.00222309552 0.527201934)
(3.27214905 0.0028573011 0.417608174)
(2.69479459 0.00267613162 0.263412065)
(2.30284657 0.00156937807 0.14744578)
(2.06662418 -0.000550451656 0.0752590023)
(1.91645219 -0.0037372772 0.0361892808)
(1.81894325 -0.00803479072 0.0173659509)
(1.75617309 -0.013501102 0.00906357794)
(1.71441586 -0.0202155637 0.00573708575)
(1.68480995 -0.0282785199 0.00455760187)
(1.66262304 -0.0378136014 0.00415340087)
(1.64541047 -0.0489698444 0.00393700805)
(1.63190556 -0.0619214004 0.00370698103)
(1.62153603 -0.0768643209 0.00341946264)
(1.61417925 -0.0940079931 0.0030832154)
(1.61003564 -0.11355685 0.00271892648)
(1.60958517 -0.135676374 0.00234452734)
(1.613591 -0.160435255 0.00197114285)
(1.62311902 -0.187712929 0.00160326272)
(1.63954672 -0.217059774 0.00123961712)
(1.66452737 -0.247498264 0.000873246664)
(1.69985932 -0.277261922 0.000490684716)
(1.74718498 -0.303491301 7.03081197e-05)
(1.80741708 -0.321960661 -0.000417641562)
(1.87986025 -0.327031805 -0.00100771415)
(1.96086598 -0.312092137 -0.00169223304)
(2.04270288 -0.271288585 -0.00240962133)
(4.39455786 0.000411201053 0.34147677)
(3.85665385 0.000974136525 0.527275514)
(3.271225 0.00104727427 0.417702165)
(2.69312211 0.000463836769 0.263499554)
(2.30033152 -0.000908966633 0.147519989)
(2.06318985 -0.00317915264 0.0753250517)
(1.91201388 -0.00642124485 0.0362537328)
(1.81341619 -0.010698424 0.0174308218)
(1.74946139 -0.0160932102 0.00912836264)
(1.70640386 -0.0227154143 0.00580124027)
(1.6753601 -0.0307023695 0.00462069137)
(1.65157205 -0.0402238333 0.00421517701)
(1.63256492 -0.0514879569 0.00399751269)
(1.61704023 -0.0647461317 0.00376635165)
(1.60439696 -0.0802964428 0.00347765102)
(1.59449502 -0.0984833619 0.00313978202)
(1.58754246 -0.119688919 0.0027729239)
(1.58407437 -0.144308025 0.00239450145)
(1.58499113 -0.172696573 0.00201535367)
(1.59162851 -0.205074907 0.00164025488)
(1.60583583 -0.241361864 0.00126916724)
(1.63002594 -0.280907509 0.000897846903)
(1.66712818 -0.322090698 0.000516921391)
(1.72031934 -0.36176084 0.000109816042)
(1.79236206 -0.394593443 -0.000347460814)
(1.88429044 -0.41246922 -0.00089744077)
(1.99285933 -0.404383226 -0.00152618923)
(2.10809157 -0.358585734 -0.00232433734)
(4.39450873 3.92648035e-05 0.341503656)
(3.85633237 2.73038981e-05 0.52734475)
(3.27039047 -0.000313367944 0.417787334)
(2.69160147 -0.00117800261 0.263577489)
(2.298036 -0.00270971614 0.147585119)
(2.06003795 -0.00502882584 0.0753836695)
(1.90791281 -0.00822299443 0.0363117681)
(1.80826777 -0.0123697017 0.0174895043)
(1.74314995 -0.017569647 0.00918702022)
(1.69878723 -0.023955375 0.00585928465)
(1.66626509 -0.0316934294 0.00467763188)
(1.64078703 -0.0409923119 0.00427067104)
(1.61983066 -0.0521129109 0.00405140999)
(1.60204149 -0.0653798589 0.00381842431)
(1.58675674 -0.0811942022 0.00352720427)
(1.57377458 -0.100045774 0.00318528568)
(1.56325362 -0.122521227 0.0028116713)
(1.55571479 -0.149300485 0.00242236676)
(1.55212005 -0.181128505 0.00202688239)
(1.55401012 -0.218739143 0.00162954082)
(1.56368904 -0.262692097 0.00123231378)
(1.58442808 -0.313061454 0.000837897985)
(1.62061674 -0.368886497 0.000451146781)
(1.6777139 -0.427306297 8.10018716e-05)
(1.76174352 -0.48233155 -0.000270662463)
(1.87774866 -0.523137733 -0.000637055132)
(2.02564582 -0.532785604 -0.000912421814)
(2.19594219 -0.488244459 -0.00171968032)
(4.39446705 -0.000225481635 0.341529834)
(3.85605173 -0.000645697845 0.527408599)
(3.26964778 -0.00126812663 0.417863403)
(2.69023958 -0.00229855903 0.263646533)
(2.29597416 -0.00388356892 0.147642954)
(2.05719357 -0.00614726284 0.0754360333)
(1.9041887 -0.00918318217 0.0363638021)
(1.80355768 -0.0130770484 0.017542088)
(1.73732546 -0.0179399567 0.00923945986)
(1.69168747 -0.0239178723 0.00591097097)
(1.65768965 -0.0311959904 0.00472801762)
(1.63048464 -0.0400096922 0.00431927164)
(1.60748439 -0.0506595526 0.00409775247)
(1.58725188 -0.0635298922 0.00386166009)
(1.56902364 -0.0791124186 0.00356552303)
(1.55247986 -0.0980351037 0.00321519576)
(1.53764997 -0.121094706 0.00282708448)
(1.52493168 -0.149288624 0.00241351245)
(1.51520764 -0.18383555 0.00197937332)
(1.51005929 -0.22616144 0.00152457801)
(1.51209216 -0.277802153 0.00105035312)
(1.52537875 -0.340127623 0.000570708115)
(1.5559841 -0.413711217 0.000130704281)
(1.61245078 -0.497168293 -0.000180388183)
(1.70599881 -0.584970518 -0.000287337777)
(1.84925674 -0.663794009 -0.000215172144)
(2.05242827 -0.709158146 -0.000169272735)
(2.31828049 -0.674315843 -0.00312489965)
(4.39443107 -0.000395266568 0.34155276)
(3.85580851 -0.00107656696 0.52746417)
(3.26900112 -0.00186247456 0.417929469)
(2.68905086 -0.00295225279 0.263706602)
(2.29416917 -0.00449014521 0.147693508)
(2.05469284 -0.00659628559 0.0754820067)
(1.90089658 -0.00936237232 0.0364095324)
(1.79936626 -0.0128753814 0.0175882099)
(1.73210172 -0.017248237 0.00928527383)
(1.6852621 -0.0226294604 0.0059558502)
(1.64984741 -0.029209443 0.00477134619)
(1.62094952 -0.0372337844 0.00436037308)
(1.59589906 -0.0470221046 0.00413572221)
(1.57315177 -0.058993109 0.00389481753)
(1.55180422 -0.0736990198 0.00359052014)
(1.53135677 -0.0918722182 0.00322569984)
(1.51161349 -0.11448695 0.0028117525)
(1.49270193 -0.142838752 0.00235292727)
(1.47520795 -0.178641488 0.0018417816)
(1.46044867 -0.224132802 0.00126106991)
(1.45094371 -0.282154397 0.000593066739)
(1.4511778 -0.356105199 -0.000152915145)
(1.46876896 -0.44962013 -0.000881937969)
(1.51611376 -0.565469638 -0.00133648846)
(1.61253224 -0.702663298 -0.00112774693)
(1.78406087 -0.849846937 0.000372027078)
(2.0671178 -0.972796037 0.0021728072)