/*--------------------------------*- C++ -*----------------------------------*\
| =========                 |                                                 |
| \\      /  F ield         | foam-extend: Open Source CFD                    |
|  \\    /   O peration     | Version:     4.1                                |
|   \\  /    A nd           | Web:         http://www.foam-extend.org         |
|    \\/     M anipulation  |                                                 |
\*---------------------------------------------------------------------------*/
FoamFile
{
    version     2.0;
    format      ascii;
    class       volVectorField;
    location    "0.65";
    object      U_0;
}
// * * * * * * * * * * * * * * * * * * * * * * * * * * * * * * * * * * * * * //

dimensions      [0 1 -1 0 0 0 0];

internalField   nonuniform List<vector> 
35840
(
(3.94086012 0.268528709 0.26184446)
(3.20795282 0.371832134 0.357379798)
(2.43829441 0.266507873 0.249860513)
(1.72034445 0.156946361 0.141978189)
(1.29366351 0.0888188026 0.0772227025)
(1.05217427 0.0517272695 0.0439385244)
(0.893412628 0.0312081279 0.0270963329)
(0.785196614 0.0189971538 0.0180808152)
(0.711666232 0.01152613 0.0131434161)
(0.660006917 0.00695142397 0.0104207746)
(0.622012724 0.00409739291 0.00881243464)
(0.593018083 0.00226560381 0.00773371448)
(0.570238606 0.00106578159 0.00691330157)
(0.551917793 0.000270303199 0.00622936015)
(0.536921796 -0.000260163778 0.00562719355)
(0.524494635 -0.000611923654 0.00508323095)
(0.514106627 -0.000838938092 0.00458740414)
(0.505364775 -0.000976370765 0.004134288)
(0.497970531 -0.00104760047 0.00372006677)
(0.491683564 -0.00106770294 0.00334154791)
(0.486304509 -0.0010468851 0.00299570403)
(0.481664341 -0.000992675507 0.00267979348)
(0.477616994 -0.000911014951 0.0023915223)
(0.474034759 -0.000806851656 0.00212904324)
(0.470805204 -0.000684605919 0.00189093036)
(0.467829246 -0.000548491787 0.00167613356)
(0.465020055 -0.000402686675 0.00148391009)
(0.462302532 -0.000251367679 0.00131374029)
(4.52124925 0.409953967 0.331399874)
(4.20224495 0.638138851 0.509000102)
(3.63676052 0.543499645 0.407274463)
(2.94288891 0.391295666 0.261504877)
(2.41564198 0.267510723 0.152217831)
(2.06111444 0.181555451 0.085969271)
(1.80857896 0.124051525 0.0502538441)
(1.6243077 0.085090282 0.0317445635)
(1.490231 0.0584909832 0.0220726669)
(1.39078654 0.040357443 0.0169156238)
(1.31473566 0.0279147377 0.0139978776)
(1.25505228 0.0192519519 0.0121402559)
(1.20723791 0.0131221345 0.0107941361)
(1.1682624 0.00871493384 0.00971966764)
(1.13604779 0.00549976921 0.00880812271)
(1.10914121 0.00312951219 0.00800738023)
(1.08649169 0.00137630826 0.00729077691)
(1.06731257 8.80826785e-05 0.00664279479)
(1.0509879 -0.000838497166 0.00605250297)
(1.03702389 -0.00147481168 0.00551098831)
(1.02501575 -0.00187181877 0.00501078684)
(1.01462349 -0.00206729531 0.00454597689)
(1.00555398 -0.00209067087 0.00411211084)
(0.997551459 -0.00196639167 0.00370594395)
(0.990390806 -0.00171609024 0.00332526092)
(0.98387304 -0.00136003713 0.00296874799)
(0.977822593 -0.000918038307 0.00263585723)
(0.972085841 -0.000409868668 0.00232664112)
(4.44213345 0.221362568 0.337951872)
(4.08278402 0.436519194 0.518819021)
(3.65713691 0.463121345 0.418089224)
(3.13712233 0.408862521 0.275888907)
(2.71978216 0.331900312 0.166457671)
(2.42181794 0.257614566 0.0961044304)
(2.19809615 0.195690353 0.056474483)
(2.02634635 0.147073957 0.035893134)
(1.89484036 0.109825794 0.025354074)
(1.7924204 0.0816895742 0.0198159837)
(1.7105346 0.0605912053 0.0166841029)
(1.64375693 0.0447789571 0.014644154)
(1.58854121 0.0328757974 0.0130981688)
(1.5423822 0.0238455723 0.011807369)
(1.5034601 0.0169319533 0.0106796647)
(1.4704277 0.0115967378 0.00967681119)
(1.4422565 0.00746298103 0.00877987484)
(1.41813712 0.00426808432 0.00797575349)
(1.3974157 0.00182826565 0.00725235429)
(1.37955346 1.27150039e-05 0.00659786334)
(1.36409407 -0.00127374628 0.00600122399)
(1.35064657 -0.00210278412 0.0054526876)
(1.3388708 -0.00253088924 0.00494421182)
(1.32846625 -0.00260547412 0.0044695465)
(1.31916535 -0.00236915291 0.00402410149)
(1.31072901 -0.00186259967 0.00360477256)
(1.30294382 -0.00112635655 0.0032097397)
(1.29562066 -0.000201814072 0.00283822996)
(4.4137073 0.12337108 0.337929075)
(3.97527239 0.285998735 0.516843146)
(3.52614412 0.346947689 0.410944716)
(3.04826812 0.341772035 0.267055858)
(2.69650621 0.30474252 0.158688071)
(2.46049684 0.256442111 0.0893117955)
(2.28810462 0.20856408 0.0503489113)
(2.15601026 0.166291205 0.0306483394)
(2.05356236 0.130902693 0.0211764143)
(1.97169182 0.102077405 0.0166825458)
(1.90391034 0.0789664096 0.014464887)
(1.84652137 0.0605930731 0.0131660574)
(1.79736241 0.0460298535 0.0121766743)
(1.75497773 0.0344762051 0.0112769782)
(1.71830374 0.0252827562 0.0104103018)
(1.686519 0.0179463672 0.00957446925)
(1.65895173 0.0120897381 0.00878050421)
(1.63503015 0.00743580124 0.00803792301)
(1.61425754 0.00378307869 0.00735058345)
(1.59619729 0.000984921053 0.00671721959)
(1.58046137 -0.00106701177 0.006133287)
(1.56670218 -0.00245560748 0.00559300523)
(1.55460594 -0.00324738039 0.00509040404)
(1.54388748 -0.00349948753 0.00462003908)
(1.53428674 -0.00326512265 0.00417743295)
(1.52556655 -0.00259726431 0.00375924611)
(1.51751153 -0.00155107526 0.00336327664)
(1.50992798 -0.000185184582 0.00298835397)
(4.40562836 0.0838884902 0.338530076)
(3.92709491 0.20587605 0.518666907)
(3.43458615 0.264643551 0.409525254)
(2.94274422 0.274652725 0.261033297)
(2.60543831 0.257687618 0.150310841)
(2.39688897 0.227994426 0.0805995808)
(2.25547271 0.194248551 0.0421470861)
(2.15330323 0.16153041 0.0232697519)
(2.07740541 0.132121323 0.0147409923)
(2.01793168 0.106671982 0.0111879723)
(1.96847705 0.0851113184 0.00984629242)
(1.92578968 0.0670784737 0.00933158863)
(1.88828465 0.0521108548 0.00901859381)
(1.85509572 0.0397389866 0.00868317388)
(1.82569052 0.0295363776 0.00827631712)
(1.79969122 0.0211417139 0.00781006097)
(1.77677884 0.0142634805 0.00731134714)
(1.75665344 0.00867458011 0.00680487196)
(1.73902353 0.0042022569 0.00630778956)
(1.72360519 0.00071679603 0.00582969794)
(1.71012344 -0.00187998335 0.00537455116)
(1.69831466 -0.00366451344 0.00494315472)
(1.68792582 -0.00469946344 0.00453434019)
(1.67871588 -0.00504079098 0.00414602814)
(1.6704564 -0.00474335186 0.00377603416)
(1.66293255 -0.00386504138 0.0034225246)
(1.65594455 -0.00246957978 0.00308423631)
(1.64930953 -0.000627987472 0.00276055038)
(4.40178208 0.0613580235 0.339164332)
(3.90242041 0.153224961 0.520512662)
(3.38075089 0.204413444 0.410097566)
(2.86922981 0.221088257 0.258746737)
(2.52752691 0.215762841 0.145978328)
(2.32479813 0.198108147 0.0755284198)
(2.1949209 0.174675527 0.0370209775)
(2.10726589 0.149847514 0.0183390435)
(2.04675503 0.126062072 0.0101160208)
(2.00218582 0.104386817 0.00691292922)
(1.96646813 0.0851663605 0.00592967362)
(1.93605996 0.0684036571 0.00577171636)
(1.909313 0.0539419421 0.0058076991)
(1.88543625 0.0415588571 0.00580462686)
(1.86404722 0.0310192613 0.00570596427)
(1.84494598 0.0221038363 0.00551976864)
(1.82799064 0.0146226652 0.00527202696)
(1.81304211 0.00841958846 0.0049885946)
(1.79994718 0.00337100507 0.0046891206)
(1.78853553 -0.000618571805 0.00438621842)
(1.7786257 -0.00362311237 0.00408725407)
(1.77002511 -0.00570123276 0.00379612418)
(1.7625363 -0.00690282556 0.00351424599)
(1.75595993 -0.00727548406 0.00324167275)
(1.75009804 -0.0068699087 0.00297789026)
(1.74475761 -0.00574422703 0.0027222853)
(1.73975424 -0.00396707053 0.00247441851)
(1.73491601 -0.00161920457 0.00223417041)
(4.39956882 0.0466855802 0.339653031)
(3.88830832 0.117717068 0.521952465)
(3.34832967 0.161233272 0.411267712)
(2.8210552 0.180137371 0.258564326)
(2.4712472 0.181413418 0.144561795)
(2.26671546 0.171537311 0.0734992473)
(2.13928499 0.15545189 0.0347860335)
(2.05697121 0.136725744 0.0160482056)
(2.00349014 0.11760158 0.00782447394)
(1.96670714 0.0992868519 0.00464248576)
(1.93894839 0.0823562621 0.00368816678)
(1.91631751 0.0670375022 0.00357070024)
(1.89695104 0.0533728363 0.00366577076)
(1.879943 0.0413102585 0.00374121438)
(1.86486912 0.0307561411 0.00373668455)
(1.85153621 0.0216053454 0.00365525624)
(1.83983765 0.013757869 0.0035182907)
(1.82968369 0.00712722054 0.00334788039)
(1.82097457 0.00164352071 0.00316093975)
(1.8135915 -0.00274754124 0.00296840589)
(1.80739816 -0.00608765697 0.00277690603)
(1.80223973 -0.00840981879 0.00258990584)
(1.79794809 -0.00974427411 0.00240869577)
(1.79434517 -0.0101242172 0.00223338429)
(1.79124705 -0.00959111342 0.00206354357)
(1.78846867 -0.00819933441 0.00189858616)
(1.78582906 -0.00601962537 0.00173798982)
(1.78315709 -0.00314095755 0.00158142318)
(4.39821815 0.0366424104 0.340042438)
(3.87962268 0.0929656435 0.523108156)
(3.327641 0.129538971 0.412493968)
(2.78864312 0.148152941 0.259131345)
(2.43118534 0.152908519 0.144406601)
(2.22295582 0.148083091 0.0729490819)
(2.09471265 0.137284237 0.0341015047)
(2.01370749 0.123288165 0.0153175106)
(1.96296358 0.108002946 0.00705758846)
(1.92977548 0.0926091721 0.00382874315)
(1.9060892 0.0777853822 0.00281311859)
(1.88776254 0.0638958139 0.00262797618)
(1.87276446 0.0511174769 0.00266120507)
(1.86007542 0.0395206688 0.0026887961)
(1.84919943 0.0291181551 0.00265338175)
(1.83990328 0.0198949576 0.00255790074)
(1.8320631 0.0118263663 0.00242205501)
(1.82558723 0.00488840038 0.00226563203)
(1.8203824 -0.000937007898 0.00210310923)
(1.81634257 -0.00566103902 0.00194351624)
(1.81334123 -0.00928866362 0.00179190663)
(1.81123301 -0.0118221923 0.00165031578)
(1.80985496 -0.0132665557 0.00151895532)
(1.80902922 -0.0136349232 0.00139710551)
(1.8085672 -0.0129545141 0.00128362863)
(1.8082748 -0.0112719573 0.00117728443)
(1.80795901 -0.00865748099 0.00107689028)
(1.80743538 -0.00520722759 0.000981385109)
(4.39732467 0.0293643952 0.340348935)
(3.87390309 0.0747761339 0.524003787)
(3.31376475 0.105379083 0.413534003)
(2.7661524 0.122576853 0.259830883)
(2.40227908 0.128944492 0.144686626)
(2.19014697 0.1272945 0.0729954489)
(2.06000042 0.120202071 0.0340816296)
(1.97864638 0.109775794 0.0152874654)
(1.92867282 0.0975713524 0.00701463528)
(1.89699502 0.0846517232 0.00375457462)
(1.87529436 0.0717062866 0.00268684135)
(1.85925521 0.0591639389 0.00243396391)
(1.84672907 0.0472837666 0.00239344334)
(1.83661536 0.0362197639 0.0023496267)
(1.82836313 0.0260631012 0.00225018664)
(1.82170358 0.0168693429 0.00210048941)
(1.81649154 0.00867620472 0.00192104139)
(1.81262391 0.00151479088 0.00173143271)
(1.81000259 -0.00458444097 0.00154551063)
(1.80851854 -0.00958898443 0.00137166066)
(1.80804323 -0.0134644865 0.00121404113)
(1.80842688 -0.0161784034 0.00107386203)
(1.80949803 -0.0177050746 0.00095065987)
(1.81106538 -0.0180320322 0.000843127613)
(1.81292173 -0.0171670071 0.000749549784)
(1.81484973 -0.0151447284 0.000668127926)
(1.81663005 -0.0120323821 0.000597082451)
(1.81805112 -0.00793272096 0.000534620295)
(4.3967004 0.0238455883 0.340586104)
(3.86994684 0.0608684486 0.52468967)
(3.30408558 0.0864459989 0.414367972)
(2.75009525 0.101785621 0.260482197)
(2.38101574 0.108618314 0.145085983)
(2.16527558 0.108819822 0.0732493614)
(2.03292126 0.104215284 0.0342968801)
(1.95052107 0.0963844491 0.0155035875)
(1.90038866 0.0865624799 0.00723069846)
(1.86918024 0.0756589904 0.00395731634)
(1.84838344 0.0643175405 0.00285996095)
(1.83354889 0.0529790313 0.0025632994)
(1.82243652 0.0419420315 0.0024704103)
(1.81388358 0.0314113901 0.00237126813)
(1.80729779 0.0215322721 0.00221748632)
(1.80238413 0.0124133967 0.00201678858)
(1.79898213 0.0041432425 0.00179097073)
(1.79698037 -0.00319919792 0.00156021754)
(1.79627702 -0.00953795622 0.00133877271)
(1.79675951 -0.0147967879 0.00113513746)
(1.79829517 -0.018899817 0.000953296259)
(1.80072595 -0.021775164 0.000794338516)
(1.80386638 -0.0233608052 0.000657742959)
(1.80750437 -0.0236123659 0.000542150983)
(1.81140466 -0.0225120668 0.000445767255)
(1.81531548 -0.020077793 0.00036655464)
(1.81897825 -0.0163707952 0.000302410316)
(1.82214044 -0.0115004771 0.000251318481)
(4.39624795 0.0195160391 0.34076894)
(3.86710418 0.0498975885 0.525216651)
(3.29710039 0.0712419605 0.415026492)
(2.73831371 0.0846050267 0.261036792)
(2.36504906 0.0912222623 0.145480543)
(2.14613751 0.0923749608 0.0735476093)
(2.01158573 0.0893573452 0.0345677915)
(1.92785306 0.0833424935 0.0157750653)
(1.8770908 0.0752941006 0.00750379423)
(1.84578478 0.0659659956 0.00422411223)
(1.82528481 0.0559287612 0.00311001723)
(1.81103888 0.0456023667 0.00278697827)
(1.80073311 0.0352943348 0.00266108386)
(1.7931537 0.0252347173 0.00252555966)
(1.7876747 0.0156023994 0.00233439392)
(1.78398074 0.00654414163 0.00209677045)
(1.78190055 -0.00181147007 0.00183531315)
(1.78131873 -0.00934406614 0.00157084023)
(1.78213252 -0.0159348699 0.00131811225)
(1.78422937 -0.0214638436 0.00108575245)
(1.78747376 -0.0258106357 0.00087791537)
(1.79169935 -0.0288586529 0.000695957735)
(1.79670476 -0.030502353 0.000539571203)
(1.80225237 -0.0306573206 0.000407539895)
(1.80807096 -0.0292722517 0.000298247696)
(1.81386301 -0.026341536 0.000209896697)
(1.81931684 -0.0219165924 0.000140586711)
(1.82412363 -0.0161136691 8.83258425e-05)
(4.39590945 0.0160268972 0.340910269)
(3.86499305 0.0410194701 0.525624354)
(3.29190197 0.0587726637 0.415544872)
(2.72944025 0.070200273 0.261492347)
(2.3528041 0.0762208894 0.145829581)
(2.13116158 0.077730347 0.073830645)
(1.99454877 0.0756504351 0.034829998)
(1.90939151 0.0708479395 0.0160352348)
(1.85775406 0.0640658321 0.00776320253)
(1.82601662 0.0559152999 0.00447809592)
(1.80543645 0.046884945 0.00335224964)
(1.79138734 0.0373555564 0.00301157403)
(1.78149892 0.0276234597 0.00286389797)
(1.77451713 0.017925158 0.00270428934)
(1.76978961 0.00845730823 0.00248801582)
(1.76698573 -0.000608049033 0.00222494346)
(1.7659279 -0.00911149605 0.00193817386)
(1.76650094 -0.0168968832 0.00164896852)
(1.76860581 -0.0238051224 0.00137218424)
(1.77213363 -0.0296716682 0.00111652785)
(1.77694926 -0.0343275694 0.00088630186)
(1.78287993 -0.0376044798 0.000683065713)
(1.78970754 -0.0393438435 0.00050677825)
(1.79716481 -0.0394100678 0.000356597)
(1.80493626 -0.0377069399 0.000231323508)
(1.81266576 -0.0341956058 0.000129595221)
(1.81997135 -0.0289115723 4.9926243e-05)
(1.82646773 -0.0219773627 -9.35697596e-06)
(4.39564887 0.013155343 0.341020342)
(3.86337806 0.0336895754 0.52594319)
(3.28792186 0.0483729798 0.415955388)
(2.72258498 0.0579794689 0.261862909)
(2.34320633 0.0632054965 0.146126304)
(2.11922345 0.064687938 0.0740808264)
(1.98072611 0.0630868174 0.0350639449)
(1.89414652 0.0590406822 0.0162652974)
(1.8415095 0.0531167178 0.00799020692)
(1.80913447 0.0458017603 0.00469911432)
(1.78822084 0.0375031067 0.00356336013)
(1.77409285 0.0285536225 0.00320921383)
(1.7643406 0.0192258579 0.00304562883)
(1.75768162 0.00974950283 0.00286874813)
(1.75344559 0.00032653237 0.00263445548)
(1.75129335 -0.00885632969 0.00235300176)
(1.75104737 -0.0176167368 0.00204781762)
(1.75259889 -0.0257679072 0.00174016004)
(1.75585859 -0.0331125882 0.00144473798)
(1.76072743 -0.0394401696 0.00117022746)
(1.76707628 -0.0445277336 0.00092099624)
(1.77473002 -0.0481459428 0.00069874767)
(1.78345507 -0.0500704541 0.000503691724)
(1.79295122 -0.0500991165 0.000335359356)
(1.80284957 -0.0480744044 0.000193028947)
(1.81271932 -0.043909259 7.59277488e-05)
(1.82208549 -0.0376129274 -1.67618484e-05)
(1.8304586 -0.0293117725 -8.60664049e-05)
(4.39544295 0.0107542506 0.341107152)
(3.86210825 0.027545563 0.526196175)
(3.28479117 0.0395873281 0.416284335)
(2.71715415 0.0475165997 0.262165205)
(2.33551196 0.051861462 0.146375377)
(2.10951433 0.0530771724 0.0742961699)
(1.969308 0.0516373681 0.0352666879)
(1.88134993 0.0480105511 0.0164635689)
(1.82765389 0.0426249836 0.00818429382)
(1.79450829 0.0358616024 0.00488697262)
(1.77307979 0.0280515576 0.00374239759)
(1.75866284 0.0194766137 0.0033771635)
(1.74882327 0.010377935 0.00320099488)
(1.74226181 0.000968773914 0.00301063856)
(1.73829959 -0.00855355355 0.00276239229)
(1.73659774 -0.0179965399 0.00246686601)
(1.73698722 -0.027162239 0.0021474438)
(1.73937404 -0.0358384265 0.00182505765)
(1.7436878 -0.0437916875 0.00151421576)
(1.74984912 -0.0507634263 0.00122347268)
(1.75774446 -0.0564702258 0.000957154746)
(1.76720439 -0.0606100647 0.00071701253)
(1.77798451 -0.0628758606 0.000503414005)
(1.7897506 -0.0629774438 0.000316203469)
(1.80207093 -0.0606719886 0.000155188272)
(1.81442042 -0.0558011497 2.03648904e-05)
(1.82620075 -0.048330532 -8.81038275e-05)
(1.83677934 -0.0383840797 -0.000170176799)
(4.39527614 0.00872357492 0.341176794)
(3.86108351 0.022339506 0.526400481)
(3.28226347 0.0320972232 0.416552051)
(2.71274318 0.0385023983 0.262414293)
(2.32919948 0.0419479132 0.146584656)
(2.10144892 0.0427556906 0.0744803649)
(1.95968964 0.0412637801 0.0354412042)
(1.87040979 0.0378129437 0.0166338489)
(1.81562781 0.0327214661 0.00835019742)
(1.78161987 0.0262807768 0.00504692739)
(1.75953714 0.0187524595 0.00389456128)
(1.7446592 0.0103668284 0.00351996633)
(1.73454 0.00132874717 0.00333336677)
(1.72787391 -0.0081724831 0.00313201634)
(1.72398349 -0.0179524947 0.00287271273)
(1.72253994 -0.0278213639 0.00256605381)
(1.72339239 -0.0375732588 0.00223499863)
(1.72647286 -0.0469763628 0.00190015227)
(1.73174282 -0.0557638705 0.00157577809)
(1.73915686 -0.0636276584 0.00127021876)
(1.7486321 -0.070216553 0.000987601731)
(1.76001895 -0.0751415774 0.000729548238)
(1.77307278 -0.077990849 0.000496439059)
(1.78742869 -0.0783566365 0.000288333184)
(1.8025841 -0.075875934 0.000105575974)
(1.81789642 -0.0702834882 -5.0868753e-05)
(1.8326037 -0.0614721105 -0.000179412545)
(1.84587497 -0.0495496493 -0.000278277044)
(4.39513782 0.00699362605 0.341233855)
(3.86023574 0.0178979164 0.526568831)
(3.28017039 0.0256762771 0.416773922)
(2.70907146 0.0307106943 0.262622517)
(2.32389902 0.0332813251 0.14676203)
(2.09460123 0.0336079499 0.0746385757)
(1.95141907 0.0319273401 0.0355920228)
(1.86087199 0.0284828407 0.0167810308)
(1.8049907 0.0235048256 0.00849332285)
(1.77005011 0.0172087772 0.00518469548)
(1.74719707 0.00979307495 0.00402554819)
(1.7317065 0.0014370853 0.00364292294)
(1.72112975 -0.00769439265 0.00344758528)
(1.71416418 -0.0174421913 0.0032375037)
(1.71014301 -0.0276428227 0.0029695609)
(1.70875668 -0.0381180218 0.00265391514)
(1.7098838 -0.0486631083 0.00231313573)
(1.71349611 -0.0590342992 0.00196753505)
(1.71960365 -0.0689362256 0.00163102935)
(1.72821492 -0.0780113596 0.00131156708)
(1.73930003 -0.085833892 0.00101289171)
(1.7527522 -0.0919115817 0.000736264205)
(1.76834653 -0.0956999674 0.00048181063)
(1.785699 -0.0966337554 0.000249571691)
(1.80423258 -0.0941793558 4.03331536e-05)
(1.82316123 -0.0879096175 -0.000143780469)
(1.84150615 -0.0775956846 -0.000299118029)
(1.8581585 -0.0633015858 -0.000421100095)
(4.39502057 0.00551486322 0.341281746)
(3.85951777 0.0140970422 0.526710595)
(3.27839491 0.0201611254 0.416961428)
(2.70594184 0.0239748314 0.262799522)
(2.31934619 0.0257224021 0.146914278)
(2.08866041 0.0255425961 0.0747757565)
(1.94415928 0.0235943685 0.0357235544)
(1.85239044 0.0200452619 0.0169096064)
(1.79539936 0.0150542677 0.00861834428)
(1.75946526 0.00877167377 0.00530499031)
(1.7357367 0.00133780002 0.00413985504)
(1.71949015 -0.00711859457 0.00375038124)
(1.70828132 -0.0164758213 0.00354821901)
(1.70081753 -0.0266109309 0.00333155193)
(1.6964496 -0.0373901827 0.00305688702)
(1.6948962 -0.048657668 0.00273402679)
(1.69607705 -0.0602212399 0.00238528209)
(1.70001929 -0.0718361535 0.0020305603)
(1.70680216 -0.0831872372 0.00168328635)
(1.71651437 -0.0938714878 0.00135085172)
(1.72921085 -0.103384151 0.00103637133)
(1.74486293 -0.111113025 0.000740403735)
(1.76329987 -0.116347763 0.000462374621)
(1.78414467 -0.118312621 0.000201826255)
(1.80675245 -0.116231322 -4.03629255e-05)
(1.83016814 -0.109430091 -0.000260828697)
(1.85312699 -0.0974763981 -0.000453025654)
(1.87412649 -0.0803365727 -0.000607981441)
(4.39491922 0.00425139967 0.341322974)
(3.85889661 0.0108470116 0.526832618)
(3.27685503 0.0154321472 0.417123024)
(2.70321498 0.0181709882 0.262952614)
(2.31535169 0.0191656373 0.147046819)
(2.0834004 0.0184890111 0.074896079)
(1.937661 0.0162386721 0.0358395162)
(1.84470481 0.0125218718 0.0170232029)
(1.78659127 0.00743856515 0.00872880779)
(1.74960513 0.00108185243 0.00541110664)
(1.72489892 -0.00646219554 0.00424074043)
(1.70775421 -0.0151149988 0.00384606184)
(1.69573473 -0.0248011719 0.00363896566)
(1.68756105 -0.0354411128 0.00341737668)
(1.68260648 -0.0469412246 0.00313760201)
(1.68062528 -0.0591809065 0.00280926523)
(1.68158952 -0.0719957108 0.00245432579)
(1.68559824 -0.085156129 0.00209221878)
(1.69282382 -0.098342475 0.00173577958)
(1.70346855 -0.111117423 0.00139168244)
(1.71771567 -0.122899364 0.00106213293)
(1.73566699 -0.132942635 0.000746526028)
(1.75726252 -0.140334226 0.000442901402)
(1.78218276 -0.144020597 0.000149429563)
(1.80974293 -0.142881312 -0.000133759426)
(1.83880153 -0.135865857 -0.000402402026)
(1.8677207 -0.12220024 -0.000646311879)
(1.89443718 -0.101649614 -0.000849508327)
(4.39483011 0.00317670298 0.341359351)
(3.85834915 0.00808125878 0.526939835)
(3.2754933 0.0114002335 0.417264841)
(2.70079284 0.0132060273 0.263087184)
(2.31178117 0.0135307806 0.147163772)
(2.07865903 0.0123932868 0.0750027902)
(1.93174352 0.00984170522 0.0359427554)
(1.83762441 0.00593438851 0.0171244092)
(1.77837174 0.000721114953 0.00882694266)
(1.7402742 -0.00575609026 0.00550530618)
(1.71448839 -0.0134619216 0.00433114425)
(1.69630104 -0.0223678908 0.00393289624)
(1.68328318 -0.0324491284 0.00372219339)
(1.67416889 -0.0436775261 0.00349701615)
(1.66835577 -0.0560115058 0.0032136595)
(1.66563801 -0.0693818688 0.00288151833)
(1.66604859 -0.083672021 0.0025221732)
(1.66977418 -0.0986912595 0.00215455767)
(1.6771066 -0.114140595 0.00179089484)
(1.6884017 -0.129571508 0.00143704665)
(1.70402791 -0.144340277 0.00109404555)
(1.72429254 -0.157564515 0.0007595956)
(1.74933538 -0.168094217 0.00042942634)
(1.77898562 -0.17451774 9.89584985e-05)
(1.8125875 -0.175231752 -0.000234054223)
(1.84882155 -0.168610935 -0.000565822969)
(1.8855756 -0.15330739 -0.000882158442)
(1.9199845 -0.128685281 -0.00115596404)
(4.3947507 0.00227062543 0.341392151)
(3.85785949 0.00574917341 0.527035729)
(3.27427021 0.00799734856 0.417391227)
(2.69860778 0.00900832369 0.26320709)
(2.30854162 0.00875566268 0.147268121)
(2.07432374 0.00721391414 0.0750982209)
(1.92628125 0.00439120799 0.0360351288)
(1.83101615 0.000304794023 0.0172145552)
(1.77060461 -0.00503860292 0.00891424028)
(1.73133675 -0.0116422056 0.00558995351)
(1.70437009 -0.0195184904 0.00441341389)
(1.68499238 -0.0286898859 0.00401257018)
(1.670778 -0.0391865794 0.00379925555)
(1.660471 -0.0510403784 0.0035716697)
(1.65349047 -0.0642751897 0.0032860623)
(1.64966973 -0.0788925967 0.00295159809)
(1.64910643 -0.094849946 0.00258950179)
(1.6520869 -0.112028421 0.00221826563)
(1.65904748 -0.130188725 0.00184956144)
(1.67054205 -0.148912685 0.00148845228)
(1.68719515 -0.167531419 0.00113470063)
(1.70962227 -0.185045078 0.000783901962)
(1.73829801 -0.200047761 0.000428456915)
(1.77335621 -0.210685282 5.91311395e-05)
(1.81431505 -0.214691464 -0.000331553534)
(1.859748 -0.209572783 -0.000743647181)
(1.90698266 -0.193018146 -0.0011582213)
(1.95199759 -0.163603468 -0.00153012922)
(4.39467933 0.00151723636 0.341422239)
(3.85741707 0.00381077935 0.527122675)
(3.27315966 0.00516952289 0.417505148)
(2.69661527 0.00552058975 0.263314954)
(2.30557214 0.00479005783 0.147361868)
(2.07032175 0.00291761152 0.0751837261)
(1.92119334 -0.000122330001 0.0361171925)
(1.82479554 -0.00434703781 0.0172945791)
(1.76320713 -0.00978537634 0.0089926496)
(1.72271428 -0.0164807504 0.00566700586)
(1.69446878 -0.0244912161 0.00448876887)
(1.67375268 -0.0338905854 0.00408599126)
(1.65813642 -0.0447676799 0.00387085775)
(1.64636559 -0.0572224038 0.00364175011)
(1.63787173 -0.0713583864 0.00335485973)
(1.63251923 -0.0872700701 0.00301913735)
(1.63046591 -0.105020735 0.00265551159)
(1.6321011 -0.124607268 0.00228214285)
(1.63802376 -0.145906707 0.0019102947)
(1.64902922 -0.168599263 0.001544454)
(1.66607964 -0.192063584 0.00118340392)
(1.69023172 -0.215243973 0.000820760106)
(1.72249008 -0.236500024 0.00044510979)
(1.76354802 -0.253469337 4.0604076e-05)
(1.81337397 -0.263007433 -0.00041035161)
(1.87065408 -0.261332465 -0.00091900675)
(1.93213436 -0.24452408 -0.00146367696)
(1.99217726 -0.209641178 -0.00197356991)
(4.39461499 0.000903006867 0.341450226)
(3.85701559 0.00223267594 0.527202261)
(3.27214597 0.00287152214 0.417608518)
(2.69478879 0.00269415318 0.263412368)
(2.3028377 0.00159067689 0.147446038)
(2.06661177 -0.000526293463 0.075259264)
(1.9164357 -0.0037105951 0.0361895697)
(1.81892204 -0.00800593741 0.0173662479)
(1.75614641 -0.0134704737 0.00906387302)
(1.71438282 -0.0201836159 0.00573736657)
(1.68476953 -0.028245815 0.00455785119)
(1.66257407 -0.0377808741 0.00415359308)
(1.64535159 -0.0489380838 0.00393710381)
(1.63183525 -0.0618919573 0.00370691954)
(1.62145263 -0.0768390453 0.00341915073)
(1.61408102 -0.0939894092 0.00308251365)
(1.60992089 -0.113548371 0.00271763224)
(1.60945253 -0.135682551 0.00234235575)
(1.61343982 -0.160462038 0.00196771008)
(1.62295004 -0.187767882 0.00159808144)
(1.63936304 -0.217152133 0.00123212468)
(1.66433576 -0.247638636 0.000862898179)
(1.6996719 -0.277461289 0.000477152235)
(1.74702083 -0.303758884 5.38363885e-05)
(1.80730325 -0.322300102 -0.000435705655)
(1.87983073 -0.327435337 -0.00102438018)
(1.96095623 -0.312533148 -0.00170258792)
(2.04293864 -0.271716156 -0.00240777537)
(4.39455772 0.000415348062 0.341476908)
(3.85665279 0.000984800745 0.527275811)
(3.27122194 0.00106310396 0.417702492)
(2.69311639 0.000484002476 0.263499864)
(2.30032278 -0.000884998736 0.147520265)
(2.06317757 -0.00315174375 0.0753253315)
(1.9119975 -0.00639067112 0.0362540225)
(1.81339501 -0.0106649546 0.0174311134)
(1.74943458 -0.0160571249 0.00912864631)
(1.70637042 -0.0226770274 0.00580150297)
(1.67531885 -0.0306620763 0.00462091415)
(1.65152157 -0.040182175 0.00421533044)
(1.63250352 -0.0514457085 0.00399754972)
(1.61696592 -0.0647044229 0.00376619722)
(1.60430743 -0.0802569234 0.00347718687)
(1.59438766 -0.0984484268 0.00313882553)
(1.5874144 -0.119662009 0.00277119934)
(1.58392273 -0.144294021 0.0023916032)
(1.58481339 -0.172702272 0.00201070433)
(1.59142325 -0.205109571 0.00163306917)
(1.60560395 -0.241437717 0.00125845092)
(1.6297726 -0.281039964 0.000882481553)
(1.66686544 -0.322297837 0.000495924441)
(1.72006966 -0.362061403 8.29211617e-05)
(1.79216182 -0.395002129 -0.000378799003)
(1.88419183 -0.412987764 -0.000928670391)
(1.99292563 -0.404985987 -0.0015482302)
(2.10838246 -0.359201653 -0.0023248301)
(4.39450855 4.38305857e-05 0.341503732)
(3.85633123 3.90134587e-05 0.527344973)
(3.2703875 -0.000295976408 0.417787626)
(2.691596 -0.00115572 0.26357779)
(2.29802761 -0.00268310243 0.1475854)
(2.06002615 -0.00499818685 0.0753839457)
(1.907897 -0.00818852633 0.0363120466)
(1.80824722 -0.0123315585 0.0174897806)
(1.7431238 -0.0175279623 0.00918728418)
(1.69875439 -0.0239102805 0.00585952206)
(1.66622424 -0.031645093 0.00467782197)
(1.64073655 -0.040940996 0.00427078054)
(1.61976856 -0.0520590562 0.00405138423)
(1.60196534 -0.0653242061 0.00381817387)
(1.58666356 -0.0811379692 0.00352658458)
(1.57366079 -0.099990914 0.00318406647)
(1.563115 -0.122470802 0.00280949159)
(1.55554655 -0.1492592 0.00241867091)
(1.55191709 -0.181103445 0.00202083487)
(1.55376771 -0.218740751 0.00161992617)
(1.56340415 -0.262735368 0.00121745082)
(1.58410176 -0.313167168 0.000815638429)
(1.62025813 -0.369081961 0.000419116748)
(1.67734623 -0.427624546 3.73489685e-05)
(1.76141237 -0.482806846 -0.000325722816)
(1.87753101 -0.523793657 -0.000698539527)
(2.02565377 -0.533611017 -0.000966698183)
(2.19631294 -0.489144115 -0.00174268517)
(4.39446683 -0.000220568001 0.341529855)
(3.85605056 -0.000633017563 0.527408752)
(3.269645 -0.00124922901 0.417863655)
(2.69023454 -0.00227428369 0.2636468)
(2.29596639 -0.00385444406 0.147643214)
(2.05718261 -0.00611353322 0.0754362909)
(1.90417398 -0.00914494572 0.0363640602)
(1.80353846 -0.0130343313 0.0175423411)
(1.73730085 -0.0178927247 0.00923969727)
(1.69165637 -0.0238660389 0.0059111776)
(1.65765065 -0.0311394415 0.00472817127)
(1.63043601 -0.0399483294 0.00431933605)
(1.60742391 -0.0505933598 0.00409766683)
(1.58717675 -0.0634590386 0.00386132278)
(1.5689303 -0.07903742 0.00356476572)
(1.5523638 -0.0979570769 0.00321374213)
(1.53750556 -0.121015767 0.00282448517)
(1.52475199 -0.149212511 0.00240904401)
(1.51498439 -0.183768583 0.00197188611)
(1.50978323 -0.226113974 0.00151228061)
(1.51175405 -0.277790682 0.00103053656)
(1.52497198 -0.340177667 0.000539467589)
(1.55550978 -0.413860727 8.28533561e-05)
(1.61192727 -0.497470809 -0.00025091023)
(1.70547762 -0.58549467 -0.000385761801)
(1.8488452 -0.664611984 -0.000341578218)
(2.0523177 -0.710305256 -0.000309317318)
(2.31874928 -0.675650185 -0.00322303251)
(4.39443087 -0.000390041843 0.341552757)
(3.85580742 -0.0010630063 0.527464279)
(3.26899864 -0.00184219992 0.417929681)
(2.68904642 -0.00292617705 0.263706836)
(2.29416228 -0.00445873524 0.14769374)
(2.05468311 -0.0065597114 0.0754822394)
(1.90088347 -0.00932063536 0.0364097637)
(1.79934909 -0.012828374 0.0175884337)
(1.73207961 -0.0171957433 0.00928547935)
(1.68523398 -0.0225711519 0.00595602226)
(1.6498119 -0.0291448845 0.00477146218)
(1.62090484 -0.037162453 0.00436039562)
(1.59584292 -0.0469434232 0.00413558743)
(1.57308116 -0.0589065065 0.00389441663)
(1.5517152 -0.07360404 0.00358966881)
(1.53124415 -0.0917687099 0.00322408707)
(1.51147043 -0.114375403 0.00280885467)
(1.49251944 -0.142720876 0.00234786409)
(1.4749744 -0.178521227 0.00183307629)
(1.46014933 -0.22401805 0.00124625543)
(1.45056086 -0.282059917 0.000568054691)
(1.4506922 -0.356057426 -0.000194795333)
(1.46816472 -0.449664912 -0.000951397321)
(1.51539061 -0.565683793 -0.00145045591)
(1.6117319 -0.703168914 -0.00131179051)
(1.7833148 -0.850818587 8.46013097e-05)
(2.06673093 -0.974402797 0.0017676603)