/*--------------------------------*- C++ -*----------------------------------*\
| =========                 |                                                 |
| \\      /  F ield         | foam-extend: Open Source CFD                    |
|  \\    /   O peration     | Version:     4.1                                |
|   \\  /    A nd           | Web:         http://www.foam-extend.org         |
|    \\/     M anipulation  |                                                 |
\*---------------------------------------------------------------------------*/
FoamFile
{
    version     2.0;
    format      ascii;
    class       volScalarField::DimensionedInternalField;
    location    "0.65";
    object      V0;
}
// * * * * * * * * * * * * * * * * * * * * * * * * * * * * * * * * * * * * * //

dimensions      [0 3 0 0 0 0 0];

value           nonuniform List<scalar> 
35840
(
1.00000018e-06
1.00000054e-06
1.00000091e-06
1.00000132e-06
1.00000177e-06
1.00000228e-06
1.00000287e-06
1.00000355e-06
1.00000435e-06
1.00000527e-06
1.00000634e-06
1.00000757e-06
1.00000896e-06
1.00001053e-06
1.00001229e-06
1.00001423e-06
1.00001634e-06
1.0000186e-06
1.00002101e-06
1.00002351e-06
1.00002606e-06
1.00002862e-06
1.00003113e-06
1.00003352e-06
1.00003572e-06
1.00003768e-06
1.00003932e-06
1.0000406e-06
1.00000018e-06
1.00000055e-06
1.00000093e-06
1.00000134e-06
1.0000018e-06
1.00000233e-06
1.00000293e-06
1.00000364e-06
1.00000446e-06
1.00000541e-06
1.00000651e-06
1.00000778e-06
1.00000923e-06
1.00001087e-06
1.0000127e-06
1.00001472e-06
1.00001693e-06
1.00001931e-06
1.00002183e-06
1.00002446e-06
1.00002716e-06
1.00002987e-06
1.00003252e-06
1.00003506e-06
1.0000374e-06
1.00003948e-06
1.00004124e-06
1.00004261e-06
1.00000019e-06
1.00000058e-06
1.00000099e-06
1.00000142e-06
1.00000191e-06
1.00000247e-06
1.00000312e-06
1.00000388e-06
1.00000477e-06
1.00000581e-06
1.00000701e-06
1.0000084e-06
1.00001e-06
1.00001181e-06
1.00001385e-06
1.00001611e-06
1.00001859e-06
1.00002128e-06
1.00002414e-06
1.00002713e-06
1.00003022e-06
1.00003332e-06
1.00003638e-06
1.00003931e-06
1.00004202e-06
1.00004444e-06
1.00004648e-06
1.00004808e-06
1.00000021e-06
1.00000064e-06
1.00000108e-06
1.00000157e-06
1.00000211e-06
1.00000273e-06
1.00000346e-06
1.00000432e-06
1.00000533e-06
1.00000652e-06
1.00000791e-06
1.00000953e-06
1.00001139e-06
1.00001352e-06
1.00001593e-06
1.00001863e-06
1.0000216e-06
1.00002484e-06
1.00002831e-06
1.00003196e-06
1.00003574e-06
1.00003957e-06
1.00004335e-06
1.000047e-06
1.00005038e-06
1.00005341e-06
1.00005597e-06
1.00005798e-06
1.00000024e-06
1.00000072e-06
1.00000122e-06
1.00000177e-06
1.00000239e-06
1.00000311e-06
1.00000396e-06
1.00000496e-06
1.00000615e-06
1.00000756e-06
1.00000923e-06
1.00001118e-06
1.00001344e-06
1.00001604e-06
1.00001901e-06
1.00002235e-06
1.00002606e-06
1.00003012e-06
1.00003451e-06
1.00003916e-06
1.000044e-06
1.00004893e-06
1.00005383e-06
1.00005856e-06
1.00006298e-06
1.00006694e-06
1.00007031e-06
1.00007295e-06
1.00000027e-06
1.00000083e-06
1.00000141e-06
1.00000204e-06
1.00000277e-06
1.00000361e-06
1.00000461e-06
1.00000581e-06
1.00000724e-06
1.00000895e-06
1.00001099e-06
1.00001338e-06
1.00001619e-06
1.00001944e-06
1.00002317e-06
1.0000274e-06
1.00003214e-06
1.00003737e-06
1.00004304e-06
1.0000491e-06
1.00005544e-06
1.00006194e-06
1.00006843e-06
1.00007473e-06
1.00008064e-06
1.00008595e-06
1.00009048e-06
1.00009404e-06
1.00000032e-06
1.00000096e-06
1.00000163e-06
1.00000238e-06
1.00000323e-06
1.00000423e-06
1.00000543e-06
1.00000688e-06
1.00000862e-06
1.00001072e-06
1.00001322e-06
1.0000162e-06
1.00001972e-06
1.00002383e-06
1.00002857e-06
1.00003399e-06
1.00004011e-06
1.0000469e-06
1.00005432e-06
1.0000623e-06
1.00007071e-06
1.00007937e-06
1.00008807e-06
1.00009656e-06
1.00010455e-06
1.00011177e-06
1.00011794e-06
1.0001228e-06
1.00000037e-06
1.00000112e-06
1.0000019e-06
1.00000278e-06
1.00000379e-06
1.00000498e-06
1.00000643e-06
1.00000818e-06
1.0000103e-06
1.00001288e-06
1.00001598e-06
1.00001971e-06
1.00002413e-06
1.00002933e-06
1.00003539e-06
1.00004236e-06
1.00005028e-06
1.00005914e-06
1.0000689e-06
1.00007945e-06
1.00009065e-06
1.00010225e-06
1.00011398e-06
1.00012548e-06
1.00013636e-06
1.00014622e-06
1.00015467e-06
1.00016135e-06
1.00000043e-06
1.0000013e-06
1.00000222e-06
1.00000325e-06
1.00000444e-06
1.00000587e-06
1.0000076e-06
1.00000972e-06
1.00001231e-06
1.00001547e-06
1.00001932e-06
1.00002396e-06
1.00002951e-06
1.0000361e-06
1.00004383e-06
1.00005279e-06
1.00006304e-06
1.0000746e-06
1.00008743e-06
1.00010141e-06
1.00011633e-06
1.0001319e-06
1.00014773e-06
1.00016334e-06
1.00017818e-06
1.00019169e-06
1.0002033e-06
1.0002125e-06
1.0000005e-06
1.00000151e-06
1.00000258e-06
1.00000378e-06
1.00000519e-06
1.00000688e-06
1.00000895e-06
1.00001151e-06
1.00001466e-06
1.00001853e-06
1.00002327e-06
1.00002904e-06
1.00003599e-06
1.0000443e-06
1.00005412e-06
1.0000656e-06
1.00007884e-06
1.00009389e-06
1.00011072e-06
1.00012919e-06
1.00014906e-06
1.00016994e-06
1.0001913e-06
1.00021249e-06
1.00023275e-06
1.00025127e-06
1.00026725e-06
1.00027994e-06
1.00000057e-06
1.00000173e-06
1.00000298e-06
1.00000438e-06
1.00000603e-06
1.00000803e-06
1.0000105e-06
1.00001356e-06
1.00001736e-06
1.00002207e-06
1.00002788e-06
1.000035e-06
1.00004366e-06
1.00005408e-06
1.00006651e-06
1.00008115e-06
1.00009817e-06
1.00011768e-06
1.00013967e-06
1.00016401e-06
1.0001904e-06
1.00021834e-06
1.00024712e-06
1.00027586e-06
1.00030351e-06
1.0003289e-06
1.00035088e-06
1.0003684e-06
1.00000065e-06
1.00000199e-06
1.00000341e-06
1.00000502e-06
1.00000695e-06
1.0000093e-06
1.00001221e-06
1.00001585e-06
1.00002041e-06
1.0000261e-06
1.00003318e-06
1.00004191e-06
1.00005261e-06
1.0000656e-06
1.00008122e-06
1.00009977e-06
1.00012153e-06
1.00014668e-06
1.00017529e-06
1.00020722e-06
1.00024214e-06
1.00027941e-06
1.00031811e-06
1.00035703e-06
1.0003947e-06
1.00042949e-06
1.00045975e-06
1.00048393e-06
1.00000074e-06
1.00000226e-06
1.00000387e-06
1.00000572e-06
1.00000794e-06
1.00001067e-06
1.00001407e-06
1.00001838e-06
1.0000238e-06
1.00003062e-06
1.00003915e-06
1.00004978e-06
1.00006289e-06
1.00007895e-06
1.00009843e-06
1.00012177e-06
1.00014939e-06
1.00018162e-06
1.00021861e-06
1.00026029e-06
1.00030628e-06
1.00035582e-06
1.00040769e-06
1.00046028e-06
1.00051153e-06
1.00055916e-06
1.00060077e-06
1.00063415e-06
1.00000083e-06
1.00000253e-06
1.00000436e-06
1.00000646e-06
1.00000898e-06
1.00001211e-06
1.00001606e-06
1.00002109e-06
1.00002747e-06
1.00003556e-06
1.00004578e-06
1.00005857e-06
1.0000745e-06
1.00009417e-06
1.00011824e-06
1.00014736e-06
1.00018215e-06
1.00022313e-06
1.00027063e-06
1.00032469e-06
1.00038494e-06
1.00045047e-06
1.00051975e-06
1.00059059e-06
1.0006602e-06
1.00072532e-06
1.00078253e-06
1.00082859e-06
1.00000092e-06
1.00000281e-06
1.00000485e-06
1.0000072e-06
1.00001004e-06
1.00001361e-06
1.00001814e-06
1.00002394e-06
1.00003136e-06
1.00004084e-06
1.0000529e-06
1.00006817e-06
1.00008734e-06
1.00011119e-06
1.00014064e-06
1.00017662e-06
1.00022003e-06
1.00027168e-06
1.00033219e-06
1.0004018e-06
1.00048022e-06
1.00056643e-06
1.00065853e-06
1.00075364e-06
1.00084795e-06
1.00093686e-06
1.00101546e-06
1.00107904e-06
1.00000101e-06
1.00000309e-06
1.00000533e-06
1.00000793e-06
1.00001111e-06
1.00001512e-06
1.00002024e-06
1.00002685e-06
1.00003537e-06
1.00004634e-06
1.00006042e-06
1.00007838e-06
1.00010112e-06
1.00012973e-06
1.00016541e-06
1.0002094e-06
1.00026299e-06
1.00032744e-06
1.00040379e-06
1.00049265e-06
1.00059393e-06
1.0007066e-06
1.00082838e-06
1.00095556e-06
1.00108298e-06
1.00120422e-06
1.00131219e-06
1.00139996e-06
1.0000011e-06
1.00000334e-06
1.00000579e-06
1.00000863e-06
1.00001214e-06
1.00001658e-06
1.0000223e-06
1.00002972e-06
1.00003937e-06
1.00005189e-06
1.0000681e-06
1.00008893e-06
1.00011555e-06
1.00014943e-06
1.00019213e-06
1.00024526e-06
1.0003106e-06
1.00039008e-06
1.00048535e-06
1.00059762e-06
1.00072726e-06
1.00087336e-06
1.00103334e-06
1.00120259e-06
1.00137424e-06
1.00153936e-06
1.0016877e-06
1.00180903e-06
1.00000117e-06
1.00000357e-06
1.00000619e-06
1.00000926e-06
1.00001306e-06
1.00001791e-06
1.0000242e-06
1.00003243e-06
1.0000432e-06
1.00005728e-06
1.00007563e-06
1.00009947e-06
1.00013025e-06
1.00016972e-06
1.00021984e-06
1.00028294e-06
1.00036168e-06
1.00045855e-06
1.00057593e-06
1.00071608e-06
1.00088024e-06
1.00106793e-06
1.00127651e-06
1.00150048e-06
1.00173096e-06
1.00195566e-06
1.00215978e-06
1.00232804e-06
1.00000123e-06
1.00000375e-06
1.00000652e-06
1.00000977e-06
1.00001383e-06
1.00001904e-06
1.00002585e-06
1.00003481e-06
1.00004662e-06
1.00006219e-06
1.00008265e-06
1.00010943e-06
1.00014433e-06
1.00018945e-06
1.00024733e-06
1.00032113e-06
1.00041428e-06
1.00053029e-06
1.00067299e-06
1.0008458e-06
1.00105111e-06
1.00128957e-06
1.00155902e-06
1.00185349e-06
1.00216196e-06
1.00246784e-06
1.00274978e-06
1.0029846e-06
1.00000127e-06
1.00000388e-06
1.00000674e-06
1.00001014e-06
1.00001439e-06
1.00001989e-06
1.00002711e-06
1.00003669e-06
1.00004941e-06
1.00006629e-06
1.00008865e-06
1.00011815e-06
1.0001569e-06
1.0002075e-06
1.0002732e-06
1.00035789e-06
1.0004659e-06
1.00060232e-06
1.00077279e-06
1.00098247e-06
1.00123553e-06
1.00153451e-06
1.00187882e-06
1.00226306e-06
1.00267466e-06
1.00309197e-06
1.00348442e-06
1.00381612e-06
1.00000129e-06
1.00000393e-06
1.00000684e-06
1.00001031e-06
1.00001468e-06
1.00002036e-06
1.00002788e-06
1.0000379e-06
1.0000513e-06
1.00006921e-06
1.00009311e-06
1.0001249e-06
1.00016704e-06
1.00022261e-06
1.0002955e-06
1.00039045e-06
1.00051325e-06
1.0006706e-06
1.00086977e-06
1.00111884e-06
1.00142551e-06
1.00179478e-06
1.00222895e-06
1.002726e-06
1.0032739e-06
1.00384628e-06
1.00440024e-06
1.00487899e-06
1.00000127e-06
1.0000039e-06
1.0000068e-06
1.00001026e-06
1.00001465e-06
1.00002039e-06
1.00002802e-06
1.00003827e-06
1.00005204e-06
1.00007058e-06
1.00009549e-06
1.0001289e-06
1.00017355e-06
1.000233e-06
1.00031179e-06
1.00041564e-06
1.00055162e-06
1.00072829e-06
1.00095547e-06
1.00124438e-06
1.00160666e-06
1.00205344e-06
1.00259412e-06
1.0032322e-06
1.0039606e-06
1.00475321e-06
1.00555338e-06
1.00626937e-06
1.00000123e-06
1.00000377e-06
1.00000658e-06
1.00000996e-06
1.00001425e-06
1.0000199e-06
1.00002745e-06
1.00003763e-06
1.0000514e-06
1.00007005e-06
1.00009528e-06
1.00012936e-06
1.00017527e-06
1.00023696e-06
1.00031952e-06
1.00042955e-06
1.00057541e-06
1.00076754e-06
1.00101874e-06
1.00134392e-06
1.00176041e-06
1.00228877e-06
1.00295035e-06
1.00376166e-06
1.00473027e-06
1.00584362e-06
1.00703913e-06
1.00816854e-06
1.00000116e-06
1.00000354e-06
1.00000619e-06
1.00000938e-06
1.00001346e-06
1.00001884e-06
1.00002608e-06
1.00003588e-06
1.00004921e-06
1.00006735e-06
1.00009205e-06
1.00012562e-06
1.0001712e-06
1.00023292e-06
1.00031631e-06
1.00042858e-06
1.00057919e-06
1.00078036e-06
1.0010477e-06
1.00140087e-06
1.00186523e-06
1.00247242e-06
1.00326079e-06
1.00427699e-06
1.00556745e-06
1.00716142e-06
1.00902449e-06
1.01093257e-06
1.00000105e-06
1.00000321e-06
1.00000562e-06
1.00000853e-06
1.00001226e-06
1.00001721e-06
1.00002388e-06
1.00003295e-06
1.00004535e-06
1.00006231e-06
1.00008551e-06
1.00011724e-06
1.00016058e-06
1.00021971e-06
1.00030022e-06
1.00040966e-06
1.00055811e-06
1.00075904e-06
1.00103052e-06
1.00139694e-06
1.00189174e-06
1.00256128e-06
1.00347048e-06
1.00471352e-06
1.00642511e-06
1.0087538e-06
1.01178251e-06
1.01522872e-06
1.00000091e-06
1.00000278e-06
1.00000487e-06
1.00000741e-06
1.00001066e-06
1.000015e-06
1.00002086e-06
1.00002887e-06
1.00003984e-06
1.00005491e-06
1.00007562e-06
1.00010407e-06
1.00014313e-06
1.00019675e-06
1.00027025e-06
1.00037096e-06
1.00050885e-06
1.00069769e-06
1.00095669e-06
1.0013133e-06
1.00180811e-06
1.00250371e-06
1.00350069e-06
1.00496507e-06
1.00717616e-06
1.01058339e-06
1.01563704e-06
1.02203045e-06
1.00000074e-06
1.00000226e-06
1.00000397e-06
1.00000604e-06
1.00000871e-06
1.00001227e-06
1.00001709e-06
1.0000237e-06
1.00003279e-06
1.0000453e-06
1.00006255e-06
1.00008633e-06
1.00011913e-06
1.00016433e-06
1.00022662e-06
1.00031247e-06
1.00043086e-06
1.00059445e-06
1.00082146e-06
1.00113918e-06
1.00159077e-06
1.00224937e-06
1.00324815e-06
1.00484239e-06
1.00752311e-06
1.01219823e-06
1.02050218e-06
1.03130007e-06
1.00000054e-06
1.00000167e-06
1.00000293e-06
1.00000447e-06
1.00000645e-06
1.0000091e-06
1.00001269e-06
1.00001763e-06
1.00002442e-06
1.0000338e-06
1.00004676e-06
1.00006467e-06
1.00008943e-06
1.00012366e-06
1.000171e-06
1.00023648e-06
1.00032718e-06
1.00045316e-06
1.0006292e-06
1.00087798e-06
1.00123685e-06
1.00177301e-06
1.00261966e-06
1.00406293e-06
1.00673652e-06
1.01190103e-06
1.02078838e-06
1.04657294e-06
1.00000052e-06
1.00000156e-06
1.00000265e-06
1.00000382e-06
1.00000513e-06
1.00000661e-06
1.00000832e-06
1.00001031e-06
1.00001262e-06
1.00001531e-06
1.0000184e-06
1.00002196e-06
1.00002601e-06
1.00003057e-06
1.00003567e-06
1.00004129e-06
1.00004741e-06
1.00005399e-06
1.00006096e-06
1.00006821e-06
1.00007563e-06
1.00008306e-06
1.00009034e-06
1.00009727e-06
1.00010367e-06
1.00010934e-06
1.00011412e-06
1.00011784e-06
1.00000053e-06
1.0000016e-06
1.00000271e-06
1.0000039e-06
1.00000524e-06
1.00000676e-06
1.00000851e-06
1.00001055e-06
1.00001293e-06
1.0000157e-06
1.0000189e-06
1.00002259e-06
1.00002679e-06
1.00003154e-06
1.00003685e-06
1.00004272e-06
1.00004913e-06
1.00005603e-06
1.00006336e-06
1.000071e-06
1.00007883e-06
1.00008669e-06
1.00009439e-06
1.00010175e-06
1.00010855e-06
1.00011459e-06
1.00011968e-06
1.00012365e-06
1.00000056e-06
1.00000169e-06
1.00000286e-06
1.00000413e-06
1.00000555e-06
1.00000718e-06
1.00000906e-06
1.00001126e-06
1.00001384e-06
1.00001685e-06
1.00002035e-06
1.00002439e-06
1.00002902e-06
1.00003428e-06
1.00004019e-06
1.00004676e-06
1.00005396e-06
1.00006175e-06
1.00007005e-06
1.00007875e-06
1.00008769e-06
1.00009671e-06
1.00010558e-06
1.00011407e-06
1.00012195e-06
1.00012897e-06
1.00013489e-06
1.00013953e-06
1.00000061e-06
1.00000185e-06
1.00000315e-06
1.00000455e-06
1.00000612e-06
1.00000794e-06
1.00001005e-06
1.00001254e-06
1.00001548e-06
1.00001892e-06
1.00002296e-06
1.00002765e-06
1.00003307e-06
1.00003925e-06
1.00004624e-06
1.00005406e-06
1.00006269e-06
1.00007208e-06
1.00008215e-06
1.00009276e-06
1.00010373e-06
1.00011484e-06
1.00012582e-06
1.00013639e-06
1.00014622e-06
1.000155e-06
1.00016244e-06
1.00016827e-06
1.00000069e-06
1.00000209e-06
1.00000355e-06
1.00000515e-06
1.00000695e-06
1.00000904e-06
1.00001149e-06
1.0000144e-06
1.00001786e-06
1.00002195e-06
1.00002678e-06
1.00003243e-06
1.000039e-06
1.00004656e-06
1.00005516e-06
1.00006485e-06
1.00007562e-06
1.00008742e-06
1.00010015e-06
1.00011365e-06
1.0001277e-06
1.000142e-06
1.00015621e-06
1.00016994e-06
1.00018277e-06
1.00019427e-06
1.00020404e-06
1.00021171e-06
1.00000079e-06
1.0000024e-06
1.00000408e-06
1.00000593e-06
1.00000803e-06
1.00001048e-06
1.00001339e-06
1.00001687e-06
1.00002102e-06
1.00002599e-06
1.00003188e-06
1.00003884e-06
1.00004698e-06
1.00005642e-06
1.00006725e-06
1.00007953e-06
1.00009328e-06
1.00010844e-06
1.00012492e-06
1.0001425e-06
1.0001609e-06
1.00017975e-06
1.00019858e-06
1.00021686e-06
1.00023401e-06
1.00024944e-06
1.00026258e-06
1.00027292e-06
1.00000092e-06
1.00000278e-06
1.00000474e-06
1.0000069e-06
1.00000937e-06
1.00001229e-06
1.00001577e-06
1.00001996e-06
1.00002502e-06
1.0000311e-06
1.00003837e-06
1.00004703e-06
1.00005723e-06
1.00006915e-06
1.00008292e-06
1.00009865e-06
1.00011639e-06
1.0001361e-06
1.00015766e-06
1.00018082e-06
1.00020521e-06
1.00023034e-06
1.00025559e-06
1.00028022e-06
1.00030343e-06
1.00032438e-06
1.00034227e-06
1.00035638e-06
1.00000107e-06
1.00000324e-06
1.00000553e-06
1.00000806e-06
1.00001099e-06
1.00001447e-06
1.00001865e-06
1.00002373e-06
1.0000299e-06
1.00003737e-06
1.00004639e-06
1.00005719e-06
1.00007002e-06
1.00008512e-06
1.0001027e-06
1.00012293e-06
1.0001459e-06
1.00017162e-06
1.00019994e-06
1.00023059e-06
1.00026307e-06
1.00029675e-06
1.00033078e-06
1.00036414e-06
1.00039573e-06
1.00042435e-06
1.00044887e-06
1.00046825e-06
1.00000124e-06
1.00000377e-06
1.00000644e-06
1.00000942e-06
1.00001288e-06
1.00001702e-06
1.00002205e-06
1.0000282e-06
1.00003572e-06
1.0000449e-06
1.00005606e-06
1.00006953e-06
1.00008565e-06
1.00010476e-06
1.00012719e-06
1.00015319e-06
1.00018295e-06
1.0002165e-06
1.00025373e-06
1.00029429e-06
1.0003376e-06
1.00038279e-06
1.00042872e-06
1.00047402e-06
1.00051709e-06
1.0005563e-06
1.00058999e-06
1.00061669e-06
1.00000144e-06
1.00000437e-06
1.00000748e-06
1.00001097e-06
1.00001505e-06
1.00001997e-06
1.00002599e-06
1.0000334e-06
1.00004253e-06
1.00005377e-06
1.00006753e-06
1.00008426e-06
1.00010444e-06
1.00012856e-06
1.00015707e-06
1.00019038e-06
1.00022881e-06
1.00027248e-06
1.00032131e-06
1.00037493e-06
1.00043259e-06
1.00049318e-06
1.00055517e-06
1.00061666e-06
1.00067545e-06
1.0007292e-06
1.00077555e-06
1.00081238e-06
1.00000165e-06
1.00000503e-06
1.00000864e-06
1.0000127e-06
1.00001749e-06
1.0000233e-06
1.00003046e-06
1.00003934e-06
1.00005037e-06
1.00006405e-06
1.00008092e-06
1.00010159e-06
1.0001267e-06
1.00015696e-06
1.00019302e-06
1.0002355e-06
1.0002849e-06
1.00034152e-06
1.00040534e-06
1.00047597e-06
1.00055255e-06
1.00063362e-06
1.00071716e-06
1.00080056e-06
1.00088077e-06
1.00095444e-06
1.00101824e-06
1.00106907e-06
1.0000019e-06
1.00000577e-06
1.0000099e-06
1.00001458e-06
1.00002016e-06
1.00002699e-06
1.00003545e-06
1.00004601e-06
1.00005924e-06
1.00007576e-06
1.00009629e-06
1.00012163e-06
1.00015268e-06
1.00019038e-06
1.0002357e-06
1.00028954e-06
1.00035269e-06
1.00042568e-06
1.0005087e-06
1.00060137e-06
1.00070269e-06
1.00081085e-06
1.00092315e-06
1.00103608e-06
1.00114538e-06
1.00124632e-06
1.0013341e-06
1.00140426e-06
1.00000216e-06
1.00000655e-06
1.00001124e-06
1.00001661e-06
1.00002304e-06
1.00003096e-06
1.00004085e-06
1.00005333e-06
1.00006908e-06
1.00008886e-06
1.00011363e-06
1.00014445e-06
1.00018252e-06
1.00022913e-06
1.00028564e-06
1.00035338e-06
1.00043354e-06
1.00052706e-06
1.0006344e-06
1.00075536e-06
1.00088882e-06
1.00103255e-06
1.00118307e-06
1.00133563e-06
1.00148433e-06
1.00162249e-06
1.00174319e-06
1.00184001e-06
1.00000241e-06
1.00000734e-06
1.00001265e-06
1.00001873e-06
1.00002606e-06
1.00003514e-06
1.00004662e-06
1.0000612e-06
1.00007971e-06
1.0001032e-06
1.00013285e-06
1.00016997e-06
1.0002162e-06
1.0002733e-06
1.00034314e-06
1.00042765e-06
1.0005286e-06
1.00064752e-06
1.00078536e-06
1.00094224e-06
1.00111706e-06
1.00130718e-06
1.00150817e-06
1.00171366e-06
1.00191554e-06
1.00210439e-06
1.00227027e-06
1.00240383e-06
1.00000268e-06
1.00000816e-06
1.00001407e-06
1.00002089e-06
1.00002915e-06
1.0000395e-06
1.00005266e-06
1.00006947e-06
1.000091e-06
1.00011852e-06
1.00015352e-06
1.00019784e-06
1.00025347e-06
1.00032268e-06
1.00040814e-06
1.00051256e-06
1.00063853e-06
1.00078841e-06
1.00096398e-06
1.00116596e-06
1.00139347e-06
1.00164355e-06
1.00191067e-06
1.00218649e-06
1.00245989e-06
1.00271761e-06
1.00294539e-06
1.00312958e-06
1.00000294e-06
1.00000895e-06
1.00001547e-06
1.00002303e-06
1.00003226e-06
1.00004388e-06
1.00005875e-06
1.00007792e-06
1.00010266e-06
1.00013448e-06
1.00017533e-06
1.00022746e-06
1.00029345e-06
1.00037648e-06
1.00048004e-06
1.00060769e-06
1.00076319e-06
1.0009502e-06
1.00117172e-06
1.00142949e-06
1.00172328e-06
1.00205003e-06
1.00240309e-06
1.0027717e-06
1.00314086e-06
1.00349197e-06
1.0038045e-06
1.00405847e-06
1.00000318e-06
1.0000097e-06
1.00001679e-06
1.00002506e-06
1.00003522e-06
1.0000481e-06
1.00006471e-06
1.00008626e-06
1.00011425e-06
1.0001506e-06
1.00019763e-06
1.00025807e-06
1.00033535e-06
1.00043365e-06
1.00055755e-06
1.00071174e-06
1.00090134e-06
1.00113192e-06
1.00140831e-06
1.00173394e-06
1.00210985e-06
1.00253335e-06
1.0029969e-06
1.00348701e-06
1.00398373e-06
1.00446118e-06
1.00488978e-06
1.00524009e-06
1.0000034e-06
1.00001036e-06
1.00001796e-06
1.00002687e-06
1.0000379e-06
1.00005197e-06
1.00007024e-06
1.00009411e-06
1.00012536e-06
1.00016623e-06
1.00021949e-06
1.00028866e-06
1.000378e-06
1.00049253e-06
1.00063797e-06
1.00082105e-06
1.0010495e-06
1.00133053e-06
1.00167096e-06
1.00207734e-06
1.00255313e-06
1.00309681e-06
1.00370054e-06
1.0043482e-06
1.00501388e-06
1.00566198e-06
1.00624985e-06
1.00673376e-06
1.00000357e-06
1.00001089e-06
1.00001891e-06
1.00002837e-06
1.00004013e-06
1.00005526e-06
1.00007501e-06
1.00010101e-06
1.0001353e-06
1.00018048e-06
1.00023986e-06
1.00031758e-06
1.00041884e-06
1.00054977e-06
1.00071772e-06
1.00093185e-06
1.00120208e-06
1.00153856e-06
1.00195231e-06
1.00245313e-06
1.00304775e-06
1.00373774e-06
1.00451642e-06
1.00536597e-06
1.00625406e-06
1.00713251e-06
1.00794003e-06
1.00861083e-06
1.00000368e-06
1.00001126e-06
1.00001957e-06
1.00002942e-06
1.00004176e-06
1.00005771e-06
1.00007869e-06
1.00010648e-06
1.00014339e-06
1.00019238e-06
1.00025726e-06
1.00034287e-06
1.00045533e-06
1.00060215e-06
1.00079278e-06
1.00103847e-06
1.00135175e-06
1.00174732e-06
1.00224137e-06
1.00284859e-06
1.00358071e-06
1.00444436e-06
1.00543685e-06
1.00654132e-06
1.00772013e-06
1.00891001e-06
1.01002346e-06
1.01096e-06
1.00000373e-06
1.00001141e-06
1.00001986e-06
1.00002993e-06
1.0000426e-06
1.00005909e-06
1.00008091e-06
1.00011e-06
1.00014888e-06
1.00020085e-06
1.0002702e-06
1.00036246e-06
1.00048473e-06
1.00064597e-06
1.00085745e-06
1.00113287e-06
1.00148896e-06
1.00194502e-06
1.00252189e-06
1.00324247e-06
1.00412821e-06
1.0051922e-06
1.00643884e-06
1.00785922e-06
1.00941512e-06
1.01102779e-06
1.01257456e-06
1.01389928e-06
1.0000037e-06
1.00001131e-06
1.00001972e-06
1.00002978e-06
1.00004251e-06
1.00005917e-06
1.00008133e-06
1.00011105e-06
1.00015103e-06
1.00020482e-06
1.00027712e-06
1.00037405e-06
1.00050361e-06
1.0006761e-06
1.00090467e-06
1.00120584e-06
1.00160003e-06
1.00211182e-06
1.00276922e-06
1.00360385e-06
1.00464773e-06
1.00593017e-06
1.00747345e-06
1.00928037e-06
1.01132107e-06
1.0135113e-06
1.01568689e-06
1.0176018e-06
1.00000357e-06
1.00001094e-06
1.0000191e-06
1.0000289e-06
1.00004136e-06
1.00005775e-06
1.00007966e-06
1.0001092e-06
1.00014918e-06
1.00020329e-06
1.00027651e-06
1.00037539e-06
1.00050862e-06
1.00068757e-06
1.00092705e-06
1.00124607e-06
1.0016687e-06
1.00222489e-06
1.00295091e-06
1.00388843e-06
1.00508452e-06
1.00659283e-06
1.00846472e-06
1.01073077e-06
1.01338794e-06
1.01637104e-06
1.01948497e-06
1.02234262e-06
1.00000336e-06
1.00001028e-06
1.00001797e-06
1.00002723e-06
1.00003906e-06
1.00005469e-06
1.00007568e-06
1.00010412e-06
1.0001428e-06
1.00019545e-06
1.00026712e-06
1.00036455e-06
1.00049678e-06
1.00067584e-06
1.00091764e-06
1.00124307e-06
1.00167927e-06
1.00226109e-06
1.00303255e-06
1.00404805e-06
1.00537555e-06
1.00709579e-06
1.00929851e-06
1.01207969e-06
1.01550956e-06
1.01958351e-06
1.02412441e-06
1.02855585e-06
1.00000304e-06
1.00000932e-06
1.0000163e-06
1.00002475e-06
1.00003558e-06
1.00004993e-06
1.00006929e-06
1.00009564e-06
1.00013161e-06
1.00018083e-06
1.00024816e-06
1.00034022e-06
1.00046596e-06
1.00063745e-06
1.00087091e-06
1.00118802e-06
1.00161767e-06
1.00219817e-06
1.0029801e-06
1.00403012e-06
1.00543633e-06
1.00731394e-06
1.00981066e-06
1.01311695e-06
1.01746392e-06
1.02302153e-06
1.02971975e-06
1.03679016e-06
1.00000263e-06
1.00000807e-06
1.00001414e-06
1.00002149e-06
1.00003095e-06
1.00004352e-06
1.00006054e-06
1.00008377e-06
1.00011562e-06
1.00015935e-06
1.00021944e-06
1.00030198e-06
1.00041532e-06
1.0005708e-06
1.00078389e-06
1.00107558e-06
1.00147443e-06
1.00201934e-06
1.00276367e-06
1.0037815e-06
1.00517763e-06
1.00710338e-06
1.00978059e-06
1.01353164e-06
1.01881631e-06
1.02622265e-06
1.03600264e-06
1.04709104e-06
1.00000214e-06
1.00000657e-06
1.00001151e-06
1.00001752e-06
1.00002527e-06
1.0000356e-06
1.00004961e-06
1.00006879e-06
1.00009515e-06
1.00013146e-06
1.00018151e-06
1.00025052e-06
1.00034564e-06
1.00047673e-06
1.00065727e-06
1.00090585e-06
1.00124806e-06
1.00171952e-06
1.00237043e-06
1.0032734e-06
1.00453745e-06
1.00633424e-06
1.00894679e-06
1.01285072e-06
1.01880524e-06
1.02787714e-06
1.04135484e-06
1.05643262e-06
1.00000158e-06
1.00000485e-06
1.00000851e-06
1.00001296e-06
1.00001872e-06
1.0000264e-06
1.00003684e-06
1.00005115e-06
1.00007087e-06
1.00009808e-06
1.00013568e-06
1.00018765e-06
1.00025948e-06
1.00035875e-06
1.00049592e-06
1.00068545e-06
1.00094746e-06
1.00131016e-06
1.00181388e-06
1.0025182e-06
1.00351543e-06
1.00495836e-06
1.00711848e-06
1.01050373e-06
1.0160511e-06
1.02513803e-06
1.03782652e-06
1.07118475e-06
1.00000081e-06
1.00000244e-06
1.00000413e-06
1.00000596e-06
1.00000799e-06
1.0000103e-06
1.00001297e-06
1.00001606e-06
1.00001966e-06
1.00002384e-06
1.00002866e-06
1.0000342e-06
1.00004051e-06
1.00004762e-06
1.00005555e-06
1.00006431e-06
1.00007384e-06
1.00008409e-06
1.00009495e-06
1.00010625e-06
1.0001178e-06
1.00012938e-06
1.00014071e-06
1.0001515e-06
1.00016147e-06
1.00017031e-06
1.00017774e-06
1.00018354e-06
1.00000082e-06
1.00000249e-06
1.00000422e-06
1.00000608e-06
1.00000816e-06
1.00001052e-06
1.00001326e-06
1.00001644e-06
1.00002014e-06
1.00002445e-06
1.00002944e-06
1.00003518e-06
1.00004172e-06
1.00004912e-06
1.00005739e-06
1.00006653e-06
1.00007652e-06
1.00008727e-06
1.00009868e-06
1.00011058e-06
1.00012278e-06
1.00013502e-06
1.00014702e-06
1.00015848e-06
1.00016907e-06
1.00017847e-06
1.0001864e-06
1.00019259e-06
1.00000087e-06
1.00000263e-06
1.00000446e-06
1.00000644e-06
1.00000865e-06
1.00001118e-06
1.00001411e-06
1.00001754e-06
1.00002155e-06
1.00002624e-06
1.00003169e-06
1.00003799e-06
1.0000452e-06
1.0000534e-06
1.0000626e-06
1.00007283e-06
1.00008404e-06
1.00009618e-06
1.00010911e-06
1.00012265e-06
1.00013659e-06
1.00015063e-06
1.00016444e-06
1.00017768e-06
1.00018995e-06
1.00020087e-06
1.0002101e-06
1.00021732e-06
1.00000096e-06
1.00000289e-06
1.0000049e-06
1.00000708e-06
1.00000954e-06
1.00001236e-06
1.00001566e-06
1.00001954e-06
1.0000241e-06
1.00002948e-06
1.00003576e-06
1.00004307e-06
1.0000515e-06
1.00006113e-06
1.00007203e-06
1.0000842e-06
1.00009764e-06
1.00011227e-06
1.00012795e-06
1.00014447e-06
1.00016156e-06
1.00017886e-06
1.00019597e-06
1.00021243e-06
1.00022774e-06
1.00024142e-06
1.000253e-06
1.00026208e-06
1.00000108e-06
1.00000326e-06
1.00000553e-06
1.00000801e-06
1.00001082e-06
1.00001407e-06
1.0000179e-06
1.00002243e-06
1.00002782e-06
1.00003419e-06
1.00004171e-06
1.00005051e-06
1.00006074e-06
1.00007251e-06
1.00008592e-06
1.00010101e-06
1.00011779e-06
1.00013616e-06
1.00015599e-06
1.00017702e-06
1.00019889e-06
1.00022117e-06
1.0002433e-06
1.00026469e-06
1.00028467e-06
1.00030259e-06
1.0003178e-06
1.00032974e-06
1.00000124e-06
1.00000374e-06
1.00000636e-06
1.00000923e-06
1.0000125e-06
1.00001633e-06
1.00002086e-06
1.00002627e-06
1.00003275e-06
1.00004048e-06
1.00004966e-06
1.00006049e-06
1.00007317e-06
1.00008788e-06
1.00010475e-06
1.00012387e-06
1.00014528e-06
1.00016891e-06
1.00019456e-06
1.00022195e-06
1.00025061e-06
1.00027997e-06
1.0003093e-06
1.00033777e-06
1.00036448e-06
1.00038851e-06
1.00040897e-06
1.00042508e-06
1.00000143e-06
1.00000433e-06
1.00000739e-06
1.00001075e-06
1.0000146e-06
1.00001914e-06
1.00002456e-06
1.00003109e-06
1.00003897e-06
1.00004844e-06
1.00005977e-06
1.00007325e-06
1.00008914e-06
1.0001077e-06
1.00012915e-06
1.00015366e-06
1.00018129e-06
1.00021198e-06
1.00024556e-06
1.00028163e-06
1.00031962e-06
1.00035877e-06
1.00039809e-06
1.00043645e-06
1.00047259e-06
1.00050523e-06
1.00053309e-06
1.00055507e-06
1.00000167e-06
1.00000505e-06
1.00000861e-06
1.00001256e-06
1.00001712e-06
1.00002253e-06
1.00002905e-06
1.00003696e-06
1.00004657e-06
1.00005821e-06
1.00007225e-06
1.00008907e-06
1.00010905e-06
1.00013257e-06
1.00015996e-06
1.00019147e-06
1.00022725e-06
1.00026731e-06
1.00031142e-06
1.00035915e-06
1.00040975e-06
1.0004622e-06
1.00051519e-06
1.00056716e-06
1.00061635e-06
1.00066093e-06
1.00069911e-06
1.00072929e-06
1.00000194e-06
1.00000587e-06
1.00001003e-06
1.00001467e-06
1.00002007e-06
1.00002652e-06
1.00003435e-06
1.00004392e-06
1.00005563e-06
1.00006994e-06
1.00008732e-06
1.00010829e-06
1.0001334e-06
1.00016317e-06
1.0001981e-06
1.0002386e-06
1.00028494e-06
1.0003372e-06
1.00039519e-06
1.00045837e-06
1.00052582e-06
1.0005962e-06
1.00066774e-06
1.00073828e-06
1.00080537e-06
1.00086643e-06
1.0009189e-06
1.00096048e-06
1.00000224e-06
1.0000068e-06
1.00001165e-06
1.00001708e-06
1.00002344e-06
1.00003111e-06
1.00004048e-06
1.00005202e-06
1.00006625e-06
1.00008376e-06
1.00010519e-06
1.00013125e-06
1.00016268e-06
1.00020023e-06
1.00024464e-06
1.00029653e-06
1.00035638e-06
1.0004244e-06
1.00050045e-06
1.00058395e-06
1.00067376e-06
1.00076812e-06
1.00086467e-06
1.00096043e-06
1.001052e-06
1.00113569e-06
1.00120788e-06
1.00126523e-06
1.00000258e-06
1.00000784e-06
1.00001346e-06
1.00001978e-06
1.00002724e-06
1.00003629e-06
1.00004744e-06
1.00006127e-06
1.00007846e-06
1.00009976e-06
1.00012603e-06
1.00015822e-06
1.00019735e-06
1.00024447e-06
1.00030064e-06
1.0003668e-06
1.00044375e-06
1.00053192e-06
1.00063131e-06
1.00074133e-06
1.00086059e-06
1.00098685e-06
1.00111694e-06
1.00124682e-06
1.00137172e-06
1.00148645e-06
1.00158579e-06
1.00166493e-06
1.00000296e-06
1.00000898e-06
1.00001542e-06
1.00002271e-06
1.0000314e-06
1.00004204e-06
1.00005521e-06
1.00007167e-06
1.00009227e-06
1.000118e-06
1.00014997e-06
1.00018944e-06
1.00023781e-06
1.00029653e-06
1.00036711e-06
1.00045097e-06
1.00054932e-06
1.000663e-06
1.00079229e-06
1.00093662e-06
1.00109441e-06
1.00126284e-06
1.00143773e-06
1.00161357e-06
1.00178375e-06
1.00194091e-06
1.00207756e-06
1.00218678e-06
1.00000336e-06
1.00001019e-06
1.00001751e-06
1.00002587e-06
1.00003589e-06
1.00004821e-06
1.00006362e-06
1.00008307e-06
1.0001076e-06
1.00013841e-06
1.00017698e-06
1.00022499e-06
1.00028428e-06
1.00035688e-06
1.00044489e-06
1.00055039e-06
1.00067524e-06
1.00082089e-06
1.00098806e-06
1.00117643e-06
1.00138425e-06
1.00160806e-06
1.00184242e-06
1.00207993e-06
1.00231141e-06
1.00252644e-06
1.0027143e-06
1.00286497e-06
1.00000376e-06
1.00001143e-06
1.0000197e-06
1.00002918e-06
1.00004058e-06
1.00005473e-06
1.00007261e-06
1.00009532e-06
1.00012415e-06
1.00016075e-06
1.00020691e-06
1.00026474e-06
1.00033674e-06
1.00042567e-06
1.00053445e-06
1.00066606e-06
1.00082329e-06
1.00100848e-06
1.00122314e-06
1.00146742e-06
1.00173963e-06
1.00203562e-06
1.00234848e-06
1.0026683e-06