/*--------------------------------*- C++ -*----------------------------------*\
| =========                 |                                                 |
| \\      /  F ield         | foam-extend: Open Source CFD                    |
|  \\    /   O peration     | Version:     4.1                                |
|   \\  /    A nd           | Web:         http://www.foam-extend.org         |
|    \\/     M anipulation  |                                                 |
\*---------------------------------------------------------------------------*/
FoamFile
{
    version     2.0;
    format      ascii;
    class       surfaceScalarField;
    location    "0.5";
    object      meshPhi;
}
// * * * * * * * * * * * * * * * * * * * * * * * * * * * * * * * * * * * * * //

dimensions      [0 3 -1 0 0 0 0];

internalField   nonuniform List<scalar> 
102656
(
5.78241318e-21
2.73076674e-13
5.78241318e-21
0
8.2484331e-13
-5.78241651e-21
0
1.39820146e-12
1.73472595e-20
4.6259348e-20
2.01611246e-12
5.78242338e-21
-2.31296822e-20
2.70365211e-12
0
4.6259385e-20
3.48582027e-12
-5.78243239e-21
-4.6259409e-20
4.38777123e-12
-5.07437984e-28
-4.62594387e-20
5.43485339e-12
-5.78244402e-21
3.38016555e-27
6.65242693e-12
5.78245053e-21
4.62595034e-20
8.06543105e-12
0
4.625955e-20
9.69767776e-12
-5.78246948e-21
-1.38778773e-19
1.15708596e-11
5.78247933e-21
9.25192802e-20
1.37032731e-11
0
-9.25194155e-20
1.61082825e-11
0
-9.25195504e-20
1.87925783e-11
1.15650432e-20
0
2.17543167e-11
5.78253895e-21
1.85039693e-19
2.49812702e-11
0
2.79771408e-26
2.84491492e-11
-5.78258143e-21
-9.25201779e-20
3.2120293e-11
-1.15652067e-20
-9.25203598e-20
3.59429395e-11
-5.78262617e-21
-1.85041127e-19
3.98512832e-11
5.78264951e-21
9.25208112e-20
4.37664944e-11
0
0
4.75988144e-11
-5.50471872e-27
9.25211668e-20
5.12507444e-11
-5.7827235e-21
0
5.462123e-11
0
1.85042807e-19
5.76106238e-11
0
0
6.01260936e-11
-6.95347641e-27
6.20870808e-11
-5.78278947e-21
-1.85043065e-19
5.78241325e-21
5.51850654e-13
-5.78241325e-21
2.31296597e-20
1.66674858e-12
1.15648331e-20
1.15648335e-20
2.82514112e-12
0
-2.31296748e-20
4.07386007e-12
0
7.24667776e-28
5.46412579e-12
5.78242774e-21
-2.3129694e-20
7.04702523e-12
5.78243243e-21
4.62594117e-20
8.87402356e-12
-5.78243836e-21
-2.84091713e-27
1.09970801e-11
-5.78244478e-21
4.62594715e-20
1.34683053e-11
5.78245148e-21
-4.62595006e-20
1.6339102e-11
0
5.02618878e-27
1.96587412e-11
-1.15197938e-27
4.62595957e-20
2.34723431e-11
0
-9.25193016e-20
2.78182632e-11
-5.78249585e-21
0
3.27249303e-11
-1.92168593e-27
0
3.82072405e-11
0
-9.25197378e-20
4.42626848e-11
0
-9.25199057e-20
5.08674698e-11
-5.78256613e-21
9.25200853e-20
5.79729685e-11
-3.41437749e-27
9.25202744e-20
6.5502907e-11
-5.78261089e-21
-9.2520397e-20
7.3351734e-11
-4.32626093e-27
4.03479252e-26
8.13846123e-11
0
-9.25207772e-20
8.94394142e-11
-5.28199241e-27
4.78590174e-26
9.73309685e-11
0
-2.77563605e-19
1.04857615e-10
-5.78273167e-21
1.85042797e-19
1.11809875e-10
-6.61376571e-27
1.85042965e-19
1.1798078e-10
1.15655302e-20
0
1.23177151e-10
-5.78278078e-21
1.27230965e-10
5.78280057e-21
0
-5.78241335e-21
8.46693525e-13
-5.78241335e-21
1.156483e-20
2.55720063e-12
5.7824168e-21
-1.15648341e-20
4.33481419e-12
-5.78242077e-21
2.31296759e-20
6.25262108e-12
-2.51969859e-28
2.3129686e-20
8.39073343e-12
-5.78242905e-21
4.62593929e-20
1.08291984e-11
0
-4.62594194e-20
1.36488951e-11
1.15648796e-20
-3.0347143e-27
1.69318021e-11
-1.73473403e-20
9.25189649e-20
2.07605381e-11
-5.78245427e-21
0
2.52170824e-11
-5.78246458e-21
9.25191447e-20
3.03805886e-11
0
1.38778874e-19
3.63242382e-11
0
-9.25193625e-20
4.3111119e-11
-5.78250288e-21
-1.8073153e-26
5.07891871e-11
-2.08909935e-27
-9.25196965e-20
5.93854656e-11
0
-9.25198488e-20
6.88997485e-11
5.78255583e-21
-1.85040019e-19
7.92982147e-11
-3.28796537e-27
3.20668043e-26
9.05074911e-11
-5.78260584e-21
0
1.02409825e-10
-4.26821985e-27
1.85041357e-19
1.14840107e-10
5.78265452e-21
-9.25208161e-20
1.27585481e-10
-5.78268746e-21
9.25211325e-20
1.40388214e-10
-5.78271582e-21
0
1.52952273e-10
-5.78274373e-21
-9.25215602e-20
1.64953734e-10
1.1565534e-20
-3.70086874e-19
1.76054775e-10
0
1.28892938e-25
1.85920484e-10
0
1.85043961e-19
1.94237328e-10
1.15656637e-20
2.0073177e-10
5.78284204e-21
0
0
1.17017909e-12
5.78241348e-21
0
3.53445702e-12
-5.78241742e-21
-2.31296703e-20
5.99305267e-12
-1.91772352e-28
2.31296789e-20
8.64949829e-12
1.15648512e-20
2.31296901e-20
1.16175758e-11
-5.78243085e-21
1.08603831e-27
1.50113505e-11
5.78243606e-21
0
1.89466238e-11
0
4.62594641e-20
2.35414805e-11
0
4.15924657e-27
2.89157865e-11
-5.78246027e-21
5.06708876e-27
3.51894953e-11
-5.78247112e-21
4.62596089e-20
4.24796233e-11
0
9.251933e-20
5.08957954e-11
-5.78249857e-21
0
6.0534311e-11
5.7825156e-21
-9.2519656e-20
7.14707859e-11
-5.78253506e-21
9.25197937e-20
8.37515586e-11
5.78255424e-21
-2.8359068e-26
9.73842254e-11
5.78257836e-21
9.2520244e-20
1.12327878e-10
-5.7826088e-21
3.75122608e-26
1.28483832e-10
-4.39189671e-27
-9.25207834e-20
1.45687841e-10
-5.78267002e-21
4.78499215e-26
1.63704924e-10
-5.65112971e-27
5.32590695e-26
1.8222801e-10
5.78273791e-21
9.25216155e-20
2.0088145e-10
0
2.77565602e-19
2.19230209e-10
-5.78280743e-21
-1.85044226e-19
2.36795045e-10
0
1.8504462e-19
2.53073323e-10
-5.7828716e-21
-1.85045179e-19
2.67564404e-10
-9.44197488e-27
0
2.79797776e-10
-9.89491451e-27
2.89361569e-10
0
1.850456e-19
0
1.5347753e-12
5.78241368e-21
-1.15648318e-20
4.63645425e-12
0
0
7.86518557e-12
-2.16508857e-28
2.31296833e-20
1.13610384e-11
-5.78242777e-21
6.93890883e-20
1.52783967e-11
5.78243302e-21
2.3129709e-20
1.97727383e-11
-5.50646077e-28
-4.62594509e-20
2.5002902e-11
5.78244704e-21
0
3.11321115e-11
8.77843058e-28
4.81100269e-27
3.83275539e-11
-5.78246668e-21
4.62596027e-20
4.67582954e-11
-1.33791128e-27
9.25193106e-20
5.65913257e-11
5.78249583e-21
-1.72950686e-26
6.79855444e-11
0
0
8.10835824e-11
5.78253189e-21
-9.2519834e-20
9.60014674e-11
0
-2.91185023e-26
1.12816346e-10
-5.78258513e-21
-9.25203464e-20
1.31552713e-10
-5.78261956e-21
9.25205913e-20
1.52167931e-10
-9.21486341e-27
9.25209404e-20
1.74538122e-10
0
-9.25212197e-20
1.984459e-10
-5.78272667e-21
9.252162e-20
2.23571618e-10
0
-9.25219787e-20
2.49489988e-10
-5.78281333e-21
-9.252234e-20
2.7567377e-10
-5.78286698e-21
9.25226147e-20
3.0150593e-10
-9.51504166e-27
2.77569094e-19
3.26300871e-10
-5.78294626e-21
0
3.49334441e-10
5.78298663e-21
-1.85047221e-19
3.69881183e-10
0
-1.85047664e-19
3.87256142e-10
5.78305355e-21
4.00857551e-10
5.78306479e-21
0
5.78241404e-21
1.9530002e-12
0
-1.95822334e-28
5.90130834e-12
1.15648381e-20
1.15648388e-20
1.00169755e-11
-2.488507e-28
0
1.44847586e-11
5.78243024e-21
2.31297039e-20
1.95089335e-11
-5.78243684e-21
0
2.52963797e-11
5.78244392e-21
4.62594775e-20
3.20600331e-11
5.7824529e-21
0
4.00206814e-11
5.78246362e-21
5.67709348e-27
4.94068223e-11
5.78247644e-21
9.25193073e-20
6.04522618e-11
-5.78249333e-21
4.62597255e-20
7.33911337e-11
5.78251188e-21
4.62598183e-20
8.84500337e-11
-5.78253613e-21
0
1.0583703e-10
0
0
1.25727477e-10
5.78258564e-21
9.25204232e-20
1.48246812e-10
5.78261906e-21
9.25207089e-20
1.73450869e-10
1.15653187e-20
-4.89868253e-26
2.01304711e-10
-5.68258167e-27
9.25215144e-20
2.31661464e-10
5.78275276e-21
1.3007383e-25
2.64243223e-10
0
9.25224734e-20
2.98626506e-10
0
9.25228711e-20
3.34235081e-10
0
1.85046697e-19
3.70342898e-10
-5.78297714e-21
1.0131268e-25
4.06089435e-10
-5.7830243e-21
0
4.40508742e-10
-1.15661746e-20
3.70098731e-19
4.72572009e-10
0
1.85049841e-19
5.01241605e-10
0
-1.85050427e-19
5.25532642e-10
-1.59914327e-26
5.44576474e-10
0
1.85050862e-19
5.78241442e-21
2.43748815e-12
5.78241442e-21
0
7.36754377e-12
-1.15648405e-20
-1.15648413e-20
1.25150907e-11
-5.7824265e-21
-9.80168398e-28
1.81199838e-11
-5.78243287e-21
-4.62594248e-20
2.44483045e-11
-5.78244108e-21
4.62594655e-20
3.17712711e-11
-5.78245024e-21
-4.62595107e-20
4.03703785e-11
-5.7824612e-21
-4.62595673e-20
5.05404081e-11
-5.78247317e-21
-4.62596355e-20
6.2589884e-11
0
8.38860435e-27
7.68385043e-11
0
0
9.36110914e-11
1.15650599e-20
-4.62599561e-20
1.13227559e-10
0
-9.25201644e-20
1.35988442e-10
-1.15651832e-20
1.85040937e-19
1.62155738e-10
-4.21286395e-27
0
1.91929133e-10
0
-9.25213311e-20
2.25418199e-10
5.78271595e-21
-6.12855877e-26
2.62611765e-10
0
9.25222713e-20
3.03346467e-10
-5.78283979e-21
1.85045672e-19
3.47277312e-10
-9.60274557e-27
9.25235312e-20
3.938539e-10
0
1.06051903e-25
4.42306536e-10
-5.78305725e-21
1.85049405e-19
4.91646589e-10
5.78313634e-21
1.8505054e-19
5.40684932e-10
5.78320022e-21
-9.25259426e-20
5.88070939e-10
-1.70653071e-26
0
6.32352285e-10
-1.84783063e-26
0
6.72052944e-10
0
0
7.05763618e-10
-5.78346771e-21
7.322361e-10
1.15670225e-20
0
1.15648298e-20
3.00094098e-12
0
0
9.07399112e-12
0
-2.31296882e-20
1.54270328e-11
-3.36760956e-28
0
2.23678837e-11
-5.78243695e-21
-2.31297239e-20
3.02392793e-11
0
0
3.9393095e-11
1.15649124e-20
4.62595562e-20
5.01978112e-11
5.78247026e-21
-4.62596198e-20
6.30434006e-11
-5.78248623e-21
0
7.83428924e-11
0
-9.25196087e-20
9.65298983e-11
5.78252915e-21
-9.25198392e-20
1.18051559e-10
5.78255469e-21
-9.25201879e-20
1.43356076e-10
0
-9.25205226e-20
1.72874021e-10
1.7347887e-20
0
2.0699284e-10
5.78267418e-21
9.2521353e-20
2.46024412e-10
-6.25602343e-27
9.2521886e-20
2.9016618e-10
-7.48798958e-27
-7.70299921e-26
3.39457256e-10
5.78286175e-21
-9.25231557e-20
3.93732077e-10
0
-1.85047876e-19
4.52575464e-10
5.78302851e-21
0
5.15284312e-10
-1.40432125e-26
-9.252549e-20
5.80842245e-10
0
9.25264843e-20
6.47914077e-10
5.78334532e-21
1.69422492e-25
7.14866441e-10
-5.78345239e-21
-9.25281642e-20
7.79819127e-10
5.78353521e-21
-1.85057458e-19
8.40728447e-10
5.78363267e-21
0
8.95499453e-10
0
-4.48152283e-25
9.42118731e-10
0
9.7879486e-10
-2.85140846e-26
1.85060698e-19
-7.57471658e-29
3.65592008e-12
5.78241542e-21
-3.07693052e-28
1.10592675e-11
-5.78242344e-21
-1.15648478e-20
1.88204432e-11
0
2.31297129e-20
2.73306086e-11
5.78244064e-21
1.7987316e-27
3.70272592e-11
0
-2.31297677e-20
4.83631842e-11
-5.78246514e-21
4.62596049e-20
6.18168459e-11
-5.78247961e-21
-7.69712453e-27
7.79002584e-11
-5.782502e-21
0
9.71624777e-11
-2.17645178e-27
1.21732564e-26
1.20187573e-10
5.78255011e-21
0
1.47586845e-10
-3.41570364e-27
1.85041022e-19
1.79983839e-10
-5.78263032e-21
9.25209157e-20
2.17990684e-10
-5.78268626e-21
9.25214827e-20
2.62174704e-10
0
1.85044114e-19
3.13014697e-10
-5.78281175e-21
-1.85045502e-19
3.70847165e-10
0
-9.25235888e-20
4.3580402e-10
-1.11423329e-26
-9.2524367e-20
5.07744912e-10
5.78309278e-21
0
5.86189265e-10
-5.78320993e-21
-1.8505274e-19
6.70255406e-10
-5.78333758e-21
1.85055112e-19
7.58616157e-10
-5.78347386e-21
-9.25289964e-20
8.49481549e-10
5.78359276e-21
0
9.40619068e-10
-1.15674951e-20
9.25308373e-20
1.02941962e-09
5.78387426e-21
0
1.11301273e-09
5.7840072e-21
1.85065546e-19
1.18842757e-09
-3.38766182e-26
1.85067643e-19
1.25278805e-09
-5.78426808e-21
1.30352247e-09
1.15686666e-20
1.85068794e-19
-8.77126676e-29
4.41436371e-12
-5.78241612e-21
-2.31296828e-20
1.33606761e-11
0
1.15648518e-20
2.27617476e-11
-1.15648702e-20
0
3.31094475e-11
5.78244609e-21
2.10480457e-27
4.49577733e-11
-9.17149932e-28
4.62595724e-20
5.88854933e-11
1.15649464e-20
0
7.55090835e-11
-5.78249334e-21
-4.62597553e-20
9.5496029e-11
1.15650313e-20
-9.25197596e-20
1.19571597e-10
0
4.6260062e-20
1.48517297e-10
5.78257748e-21
-4.62602194e-20
1.83163171e-10
-4.11433921e-27
9.25209142e-20
2.24370615e-10
1.15653482e-20
0
2.73003112e-10
0
9.25220819e-20
3.29883291e-10
-5.78281606e-21
-8.40384198e-26
3.95734785e-10
-9.56643187e-27
0
4.71108728e-10
5.78299901e-21
-1.2147272e-25
5.56296276e-10
5.78311758e-21
9.25260271e-20
6.51230785e-10
1.15665213e-20
1.69047555e-25
7.553861e-10
-1.95673147e-26
1.96263332e-25
8.67681083e-10
-5.78361415e-21
0
9.86404161e-10
-5.78377277e-21
1.85063554e-19
1.10917424e-09
5.78396343e-21
-9.2532773e-20
1.23295493e-09
-5.78412469e-21
0
1.3541364e-09
5.78431443e-21
0
1.46869285e-09
5.78449587e-21
0
1.57241275e-09
0
0
1.66118581e-09
-5.78489922e-21
1.73131666e-09
-4.94736423e-26
3.70156119e-19
-1.0078781e-28
5.28586698e-12
0
-4.11551657e-28
1.60115048e-11
-3.06563638e-28
1.28286426e-27
2.73142763e-11
-5.78243824e-21
-2.312974e-20
3.98020754e-11
7.73990587e-28
2.31297753e-20
5.41721889e-11
0
-2.31298163e-20
7.11613676e-11
-1.41968316e-27
-4.62597174e-20
9.15566781e-11
1.1565013e-20
-4.62598497e-20
1.16221856e-10
0
1.37657631e-26
1.4610963e-10
5.78256699e-21
1.74510005e-26
1.82258371e-10
0
-9.25207903e-20
2.25786959e-10
-5.78266617e-21
4.62607141e-20
2.77876644e-10
5.78273119e-21
9.25220524e-20
3.39735623e-10
0
0
4.12545069e-10
1.15658013e-20
-9.25239365e-20
4.97382952e-10
-1.17554308e-26
-1.25902274e-25
5.95124842e-10
1.15662908e-20
1.85052696e-19
7.06322518e-10
-5.78330804e-21
1.8105681e-25
8.31064302e-10
-5.78348618e-21
2.13883537e-25
9.68824484e-10
-2.46837717e-26
-1.85062744e-19
1.11831553e-09
5.78388031e-21
0
1.27736295e-09
1.15682332e-20
0
1.44282762e-09
5.78436678e-21
-9.25373283e-20
1.61060278e-09
-1.7353961e-20
9.2539778e-20
1.77571038e-09
-5.78488192e-21
3.70166946e-19
1.93251299e-09
5.78518307e-21
-1.85086011e-19
2.07504157e-09
-5.81281336e-26
1.85088877e-19
2.19741758e-09
1.15711693e-20
2.29432421e-09
-5.78584074e-21
-1.85091031e-19
-1.15718534e-28
6.28647484e-12
5.78241745e-21
-4.71439347e-28
1.90503598e-11
-5.78242973e-21
2.20465394e-27
3.25297645e-11
5.78244212e-21
2.31297519e-20
4.74852018e-11
-1.15649149e-20
2.82989909e-27
6.47955458e-11
5.78247502e-21
2.31298361e-20
8.53820981e-11
0
4.6259788e-20
1.10232883e-10
1.15650419e-20
-4.62599456e-20
1.40461459e-10
5.78255353e-21
3.24543145e-26
1.77315635e-10
-3.60891933e-27
-4.62603407e-20
2.22163532e-10
0
4.62606212e-20
2.76501139e-10
-5.86500529e-27
9.25219989e-20
3.41935937e-10
0
8.27067118e-26
4.20143898e-10
-9.29907481e-27
0
5.12804271e-10
-5.78301062e-21
9.25250128e-20
6.21501116e-10
5.78313886e-21
-9.25266079e-20
7.47591398e-10
5.783305e-21
0
8.92038742e-10
0
-1.85060113e-19
1.05521709e-09
0
9.25324985e-20
1.23669051e-09
0
-9.25346324e-20
1.43498728e-09
-3.66225278e-26
-9.25372318e-20
1.64739661e-09
-4.27937384e-26
1.85080789e-19
1.86982502e-09
5.78486429e-21
0
2.09675526e-09
5.78526024e-21
9.25466126e-20
2.32134958e-09
-6.31022082e-26
1.85097515e-19
2.5357288e-09
-5.7860158e-21
0
2.73143565e-09
-7.59108155e-26
0
2.90005552e-09
8.12588351e-26
3.03392695e-09
5.78674499e-21
0
0
7.42309427e-12
0
0
2.24988939e-11
-1.15648644e-20
-8.35309208e-28
3.84531019e-11
5.78244627e-21
2.31297667e-20
5.62370836e-11
0
3.23870701e-27
7.69372082e-11
-5.78248408e-21
2.31298643e-20
1.01690636e-10
0
-4.62598761e-20
1.317512e-10
-5.78254009e-21
4.62600222e-20
1.6855654e-10
-3.24914639e-27
1.89699777e-26
2.13703699e-10
0
-4.62605009e-20
2.68968638e-10
1.15653715e-20
3.10351634e-26
3.36347069e-10
-5.7827691e-21
4.62612861e-20
4.18010231e-10
-5.78285729e-21
0
5.162608e-10
0
-9.25249977e-20
6.33462368e-10
-1.39538956e-26
-9.25265535e-20
7.71912282e-10
0
-1.85056626e-19
9.3366959e-10
-1.7350549e-20
1.85060947e-19
1.12033002e-09
-5.78374937e-21
2.81230141e-25
1.3327564e-09
0
-1.85071314e-19
1.57076061e-09
-5.78436919e-21
3.99108607e-25
1.83276267e-09
-4.60020201e-26
-9.25422464e-20
2.11546666e-09
5.78515427e-21
0
2.41360743e-09
5.78559783e-21
-1.85099972e-19
2.71983456e-09
1.15721968e-20
0
3.02480268e-09
-5.78661456e-21
-1.51738294e-24
3.31752714e-09
-9.04135949e-26
-1.85122167e-19
3.58603183e-09
-5.7874186e-21
1.85125968e-19
3.81826107e-09
-5.78800359e-21
4.00315514e-09
5.7880901e-21
0
1.15648382e-20
8.69514858e-12
0
2.31297071e-20
2.63664811e-11
5.78243423e-21
-1.15648708e-20
4.51164187e-11
1.15649012e-20
-2.31297849e-20
6.61080704e-11
5.78246938e-21
-4.62596639e-20
9.06653751e-11
0
-2.31298943e-20
1.20202845e-10
-5.78252213e-21
0
1.56310128e-10
-5.78255825e-21
0
2.00793547e-10
-3.72815284e-27
-4.62604042e-20
2.55687633e-10
5.78265751e-21
9.25215138e-20
3.23323787e-10
0
0
4.06309515e-10
5.78282148e-21
9.25233366e-20
5.07520334e-10
-5.7829464e-21
0
6.30110146e-10
5.7830787e-21
0
7.77374078e-10
-1.66431347e-26
9.25280028e-20
9.52600736e-10
0
9.25302815e-20
1.15885689e-09
-5.78378327e-21
-9.25335557e-20
1.39868222e-09
-5.7840749e-21
6.93418137e-25
1.67373585e-09
-5.78444909e-21
1.85080423e-19
1.98434125e-09
0
-1.85087797e-19
2.32897819e-09
-5.73864479e-26
-9.25484252e-20
2.70377562e-09
0
9.25539719e-20
3.10208037e-09
-5.78652504e-21
-1.85117486e-19
3.51420349e-09
5.78706576e-21
9.25643215e-20
3.92745466e-09
-1.04390105e-25
0
4.32657146e-09
5.78832334e-21
0
4.69461075e-09
5.78890642e-21
0
5.01428352e-09
5.78941868e-21
5.26959033e-09
-1.4646099e-25
1.8515873e-19
-5.78242002e-21
1.01071817e-11
-5.78242002e-21
-6.67313557e-28
3.06636153e-11
-1.1564874e-20
2.31297524e-20
5.25296681e-11
1.15649108e-20
-2.3129801e-20
7.71121933e-11
5.78247602e-21
4.10845192e-27
1.06022704e-10
-1.77604795e-27
-2.31299202e-20
1.41011016e-10
5.78253344e-21
4.62600482e-20
1.84048889e-10
0
-1.92236211e-26
2.3738361e-10
-1.15652561e-20
4.62606154e-20
3.03616093e-10
-5.7826979e-21
-9.25218917e-20
3.85743992e-10
0
4.62614291e-20
4.87155529e-10
1.15657799e-20
4.62620399e-20
6.11699014e-10
0
0
7.63582502e-10
-5.78320915e-21
9.25274969e-20
9.47290068e-10
1.15668342e-20
9.25298245e-20
1.16751836e-09
-5.783671e-21
-2.77620406e-25
1.42876329e-09
-1.15680176e-20
9.25360438e-20
1.73493026e-09
-5.78442081e-21
4.23700206e-25
2.08893008e-09
1.15697369e-20
-9.25447128e-20
2.49201995e-09
0
0
2.94305708e-09
5.78608059e-21
-1.85112633e-19
3.43772134e-09
5.78671177e-21
9.2562377e-20
3.9678012e-09
-5.78758383e-21
9.25701408e-20
4.5207004e-09
-5.7884248e-21
-1.85153141e-19
5.079332e-09
0
0
5.62258775e-09
-5.79015435e-21
-1.85180255e-19
6.12653265e-09
5.79063506e-21
1.85187829e-19
6.56634668e-09
0
6.91882211e-09
5.79207376e-21
-1.85198831e-19
-5.78242083e-21
1.16561669e-11
-5.78242083e-21
1.15648595e-20
3.53811072e-11
-5.45569603e-28
0
6.06811583e-11
-5.78246026e-21
0
8.92446471e-11
-1.40309682e-27
4.55360524e-27
1.23015829e-10
2.31300464e-20
-2.31299634e-20
1.64125848e-10
0
0
2.14994333e-10
-5.78259642e-21
0
2.78421486e-10
-5.78265673e-21
-9.25214917e-20
3.57680604e-10
0
-4.62611733e-20
4.56565546e-10
-5.78283473e-21
0
5.79483932e-10
0
-4.62624601e-20
7.31471796e-10
0
0
9.18102136e-10
5.78331707e-21
0
1.1455353e-09
-5.78359623e-21
0
1.42029714e-09
5.78389285e-21
0
1.74877312e-09
5.78428677e-21
-9.25403557e-20
2.13684738e-09
0
9.25455816e-20
2.58935695e-09
0
-9.25504672e-20
3.10914596e-09
-7.13695313e-26
-9.25572863e-20
3.69599866e-09
1.15737331e-20
0
4.3454799e-09
5.78772995e-21
-2.7772245e-19
5.04777662e-09
5.78873883e-21
-1.8516611e-19
5.78680996e-09
5.78997568e-21
9.25916497e-20
6.53983312e-09
0
1.85201361e-19
7.27783937e-09
5.79210904e-21
-1.8521804e-19
7.96709358e-09
5.7931947e-21
0
8.57192344e-09
5.79416147e-21
9.05854595e-09
5.79469995e-21
-4.06679064e-24
5.78242141e-21
1.33332782e-11
5.78242141e-21
-1.15648642e-20
4.04925838e-11
-5.78244151e-21
2.31297731e-20
6.95277084e-11
0
0
1.02445579e-10
-5.78249041e-21
2.31299035e-20
1.41568764e-10
5.78252238e-21
-2.31299878e-20
1.89464936e-10
-5.78256e-21
-9.25204138e-20
2.49077277e-10
5.78261123e-21
0
3.23850006e-10
-5.25372796e-27
-9.25217961e-20
4.17849696e-10
5.78276411e-21
-4.62614049e-20
5.35873323e-10
0
1.38786232e-19
6.8355349e-10
-5.78303344e-21
9.25258651e-20
8.67365337e-10
-5.78322363e-21
9.25279334e-20
1.09468638e-09
5.78344637e-21
0
1.3738844e-09
-1.15675258e-20
0
1.71390373e-09
0
1.85076908e-19
2.12359138e-09
-5.7846512e-21
1.85087316e-19
2.6115422e-09
0
-2.77649551e-19
3.1855271e-09
0
9.25578224e-20
3.85094741e-09
5.78675771e-21
0
4.6094028e-09
-5.78786862e-21
-9.25756358e-20
5.45703211e-09
0
-1.85174668e-19
6.38263636e-09
-5.79038639e-21
9.25985569e-20
7.36619734e-09
0
-9.26109104e-20
8.37790318e-09
-2.12569553e-25
0
9.37825375e-09
-2.42909208e-25
-1.85269134e-19
1.03198703e-08
0
-1.85293771e-19
1.11514208e-08
0
1.18234894e-08
-3.19760815e-25
0
5.78242207e-21
1.512321e-11
1.15648441e-20
-8.48709355e-28
4.59518725e-11
0
-2.31297834e-20
7.89912493e-11
-1.15649351e-20
0
1.16602672e-10
-1.63724277e-27
-2.31299181e-20
1.61531985e-10
5.7825285e-21
-6.93900698e-20
2.16840133e-10
0
4.62602871e-20
2.86069713e-10
-1.15652651e-20
-2.62224628e-26
3.7341047e-10
5.78270194e-21
-4.62610586e-20
4.83864426e-10
-5.78280602e-21
-4.6261584e-20
6.23406209e-10
-5.7829245e-21
0
7.99131009e-10
0
4.62633376e-20
1.01936293e-09
-5.78331987e-21
-9.25293666e-20
1.29373065e-09
-5.783601e-21
0
1.63324793e-09
-1.73518542e-20
9.25363391e-20
2.04987364e-09
0
-1.85083189e-19
2.5560008e-09
0
-9.25481932e-20
3.16430669e-09
-5.7857142e-21
0
3.88636517e-09
5.78659876e-21
9.25653412e-20
4.73119349e-09
0
0
5.70387131e-09
-1.26573348e-25
-2.77766605e-19
6.80241256e-09
-1.5559087e-25
-9.26022186e-20
8.01488432e-09
0
-9.26158793e-20
9.3172357e-09
5.79384199e-21
1.85270899e-19
1.06712577e-08
-5.79611276e-21
-5.22211074e-24
1.20238711e-08
1.15961287e-20
0
1.33089138e-08
-5.80026913e-21
-1.85366586e-19
1.44524385e-08
0
1.53816687e-08
0
1.85381214e-19
5.7824226e-21
1.70036701e-11
-5.78242281e-21
-1.15648684e-20
5.16913576e-11
0
-1.15648961e-20
8.89559606e-11
5.78246994e-21
2.31298534e-20
1.31545958e-10
-1.72816463e-27
-2.31299289e-20
1.82672426e-10
1.15650708e-20
-2.31300478e-20
2.45943959e-10
-1.15651675e-20
-4.62603569e-20
3.25576396e-10
0
0
4.26606802e-10
-1.15654588e-20
-4.62612411e-20
5.55114256e-10
5.78282907e-21
9.2523775e-20
7.18444877e-10
0
1.33266861e-25
9.25432149e-10
0
9.25275122e-20
1.18659396e-09
5.78339156e-21
0
1.51428491e-09
2.550671e-26
1.85067954e-19
1.92276324e-09
-5.78414153e-21
1.85077655e-19
2.42785681e-09
5.78458262e-21
0
3.04679453e-09
5.78534396e-21
9.25519752e-20
3.79748069e-09
1.15723158e-20
8.4063307e-25
4.69686317e-09
-5.78716008e-21
9.2574545e-20
5.7598046e-09
5.78855681e-21
-9.25872592e-20
6.99661215e-09
-1.49503192e-25
-9.26018345e-20
8.40895169e-09
5.79182368e-21
1.85242192e-19
9.98588325e-09
-2.27942542e-25
1.85283285e-19
1.17000641e-08
0
-1.85324565e-19
1.35041398e-08
-3.27617808e-25
-1.85369269e-19
1.53282122e-08
0
0
1.70807537e-08
5.80450974e-21
0
1.86551937e-08
5.8070344e-21
1.99433181e-08
5.80913709e-21
1.85479499e-19
-5.78242295e-21
1.89452075e-11
0
-1.15648708e-20
5.76213733e-11
-6.85795848e-28
0
9.92669785e-11
5.78247077e-21
2.31298613e-20
1.47045114e-10
5.78250415e-21
5.93002381e-27
2.0466814e-10
0
2.31300664e-20
2.76340506e-10
5.78259316e-21
-4.62604113e-20
3.67018539e-10
5.78265917e-21
4.62608026e-20
4.82681837e-10
-6.48497857e-27
4.62613625e-20
6.30621738e-10
1.15657168e-20
9.25241313e-20
8.19746649e-10
0
-1.38788844e-19
1.06089624e-09
-1.56661822e-26
-4.62641256e-20
1.36714548e-09
-5.78349049e-21
-9.25314004e-20
1.75406475e-09
-2.7730115e-26
9.25358339e-20
2.23987529e-09
0
4.38744705e-25
2.84539274e-09
5.784858e-21
-9.25476334e-20
3.59377978e-09
0
1.85112575e-19
4.50955859e-09
0
9.59226994e-25
5.6174644e-09
-5.78791154e-21
9.25819374e-20
6.94096152e-09
-5.78946813e-21
-9.25972186e-20
8.4982335e-09
5.79120901e-21
-2.77852846e-19
1.02973552e-08
5.79347507e-21
1.85282506e-19
1.23312424e-08
-5.79642352e-21
9.26692131e-20
1.45716542e-08
-5.79956747e-21
-3.4844047e-24
1.69629966e-08
-4.0001067e-25
-3.70909232e-19
1.94161508e-08
5.80636173e-21
1.85509789e-19
2.1806511e-08
0
0
2.39807626e-08
0
2.57758576e-08
0
-3.71220879e-19
0
2.09114694e-11
5.7824231e-21
0
6.36309364e-11
-6.94995317e-28
1.48518927e-27
1.09731429e-10
5.78247287e-21
-4.32253653e-27
1.62810411e-10
-5.78250392e-21
6.05822183e-27
2.27108514e-10
-2.59518959e-27
2.31300771e-20
3.07463948e-10
-1.1565195e-20
9.25209354e-20
4.0962869e-10
0
-4.62609173e-20
5.40605927e-10
-5.78275769e-21
-4.62614049e-20
7.09018221e-10
1.1565751e-20
0
9.25509837e-10
5.78301913e-21
9.25263847e-20
1.20317815e-09
-5.78326182e-21
1.38793249e-19
1.55801652e-09
5.78353006e-21
-9.25322704e-20
2.00933298e-09
0
-9.25367943e-20
2.58008255e-09
-1.15688493e-20
-4.76265822e-25
3.29701802e-09
5.78505767e-21
-9.2551026e-20
4.19054104e-09
5.78590789e-21
0
5.29401206e-09
5.78709816e-21
1.07298016e-24
6.64241864e-09
-5.78853494e-21
-9.25888427e-20
8.2703412e-09
-5.79019992e-21
-9.26086258e-20
1.02082889e-08
0
-2.25414289e-24
1.24761145e-08
-1.15906044e-20
-9.26671759e-20
1.50743937e-08
-5.79880015e-21
-1.85393449e-19
1.79783814e-08
0
-1.85469718e-19
2.11293987e-08
-5.8073033e-21
0
2.4419958e-08
0
-1.16922528e-23
2.76851363e-08
-8.50965373e-21
-1.85718897e-19
3.0706063e-08
-1.11753988e-20
3.3232867e-08
-5.32004627e-21
0
-2.25341483e-28
2.28599775e-11
0
1.15648701e-20
6.95900624e-11
-5.78244717e-21
0
1.20122296e-10
0
0
1.78498137e-10
-1.8142578e-27
2.3129959e-20
2.4950119e-10
0
2.313007e-20
3.38626723e-10
-5.78259775e-21
4.62604759e-20
4.52459448e-10
-4.95330149e-27
-4.62609049e-20
5.99084528e-10
0
0
7.88546402e-10
-5.78288681e-21
-9.25244034e-20
1.03336421e-09
0
-4.62631471e-20
1.34910395e-09
0
-4.62646993e-20
1.75499453e-09
0
-9.25328464e-20
2.27455559e-09
5.78396564e-21
-3.77430363e-25
2.93617677e-09
0
-9.25446393e-20
3.77354956e-09
5.78520353e-21
9.25519137e-20
4.82580271e-09
-1.46933777e-25
-8.88917217e-25
6.13711689e-09
1.15747996e-20
-9.25778965e-20
7.75555113e-09
-5.78906174e-21
-9.25946344e-20
9.73070023e-09
5.79079842e-21
9.26212774e-20
1.21102179e-08
0
9.26480696e-20
1.49317371e-08
-1.15941647e-20
-9.26865528e-20
1.82128743e-08
5.8007991e-21
-9.27255335e-20
2.19432253e-08
5.8056406e-21
1.85559551e-19
2.60694698e-08
-5.71310485e-25
-3.71331864e-19
3.04733153e-08
3.15001015e-21
-1.85776557e-19
3.49499164e-08
-8.47486027e-21
-1.8588907e-19
3.91938145e-08
-1.74978902e-20
4.28149212e-08
-1.16776551e-20
1.86000362e-19
0
2.47434513e-11
-2.17820422e-28
1.15648686e-20
7.53538043e-11
0
1.43006473e-27
1.30185386e-10
0
-4.18182783e-27
1.93720932e-10
0
-2.31299391e-20
2.71286462e-10
5.78254172e-21
2.31300685e-20
3.69038859e-10
5.78258975e-21
0
4.94408624e-10
-4.85134794e-27
-4.62608501e-20
6.56589816e-10
1.15654971e-20
4.19375107e-26
8.67098095e-10
0
5.71020899e-26
1.14041254e-09
-5.78305127e-21
-9.25264502e-20
1.49470913e-09
0
4.62648378e-20
1.95268139e-09
0
-9.25333138e-20
2.54242486e-09
-5.78401209e-21
0
3.29833269e-09
-5.78457534e-21
0
4.26190762e-09
0
0
5.48233515e-09
5.78633392e-21
-9.31108856e-25
7.01658017e-09
5.78766574e-21
-1.85164005e-19
8.92867439e-09
5.78928449e-21
1.64150802e-24
1.12877459e-08
-1.80069579e-25
-9.26279725e-20
1.41642685e-08
0
1.8532565e-19
1.76223508e-08
5.79817516e-21
0
2.17110149e-08
-5.8029063e-21
-9.27562012e-20
2.64525158e-08
-2.6903984e-21
-2.78465674e-19
3.18187602e-08
4.97245578e-22
0
3.77030247e-08
-1.42785683e-20
-1.81932106e-23
4.38812679e-08
-1.16699929e-20
-2.16214259e-23
4.99523654e-08
-1.75381963e-20
5.52996515e-08
-2.34243922e-20
0
-5.78242214e-21
2.65116746e-11
-2.04491903e-28
-1.15648667e-20
8.07679596e-11
5.78244329e-21
2.31297853e-20
1.39649331e-10
-1.09448849e-27
0
2.0806303e-10
1.15649928e-20
5.57365317e-27
2.91859269e-10
-5.78253448e-21
2.31300389e-20
3.97838909e-10
-1.1565164e-20
0
5.34262038e-10
-4.60897692e-27
-4.62608387e-20
7.11419132e-10
-5.78273921e-21
0
9.42292852e-10
5.78285223e-21
-4.62620799e-20
1.24333452e-09
0
-4.62632499e-20
1.63537305e-09
-5.78325212e-21
4.62645877e-20
2.14466381e-09
0
9.25327287e-20
2.80406806e-09
5.78394461e-21
0
3.65432657e-09
-5.78453849e-21
0
4.74534953e-09
0
-9.25545964e-20
6.13738354e-09
-5.78624928e-21
9.25662532e-20
7.90183109e-09
5.78759794e-21
1.26601428e-24
1.01213898e-08
0
-9.26045547e-20
1.28890511e-08
0
9.2635586e-20
1.63053618e-08
0
9.26710838e-20
2.04731575e-08
-5.79944342e-21
9.27282794e-20
2.54898524e-08
0
-9.27892746e-20
3.14362883e-08
-1.16249213e-20
-6.85591453e-24
3.83556746e-08
-1.74640193e-20
0
4.62122829e-08
-2.33305372e-20
-1.86211281e-19
5.48267261e-08
-1.75415139e-20
-1.86500012e-19
6.3745323e-08
-1.75920563e-20
7.20089013e-08
-5.88127326e-21
-1.86768821e-19
0
2.81138155e-11
0
1.15648627e-20
8.56762172e-11
5.78244033e-21
1.15648851e-20
1.48238234e-10
-5.78246288e-21
-3.58694197e-27
2.21099809e-10
0
4.62598126e-20
3.10598e-10
-5.78252352e-21
4.62600104e-20
4.24135533e-10
-3.04115814e-27
4.62603051e-20
5.7075299e-10
-4.22011411e-27
-2.69981097e-26
7.6177948e-10
-5.82408527e-27
3.71215185e-26
1.01159744e-09
-5.78281771e-21
-4.62618756e-20
1.3385548e-09
0
4.62628358e-20
1.76605369e-09
-5.78319246e-21
4.62642443e-20
2.32383808e-09
-5.78348217e-21
0
3.04948963e-09
-5.78387792e-21
-9.25371263e-20
3.99011995e-09
0
0
5.20421322e-09
5.78509993e-21
-9.25531155e-20
6.76352224e-09
-5.78615232e-21
0
8.75485434e-09
-5.78750779e-21
9.25824712e-20
1.12815115e-08
0
0
1.44640987e-08
5.79163933e-21
2.27293087e-24
1.8440438e-08
0
-2.78026491e-19
2.33644827e-08
5.79935114e-21
-9.2729659e-20
2.94045026e-08
-2.65902071e-21
9.28160302e-20
3.67405455e-08
-2.6251683e-21
0
4.55597791e-08
-1.74751058e-20
0
5.60323757e-08
-2.33614841e-20
0
6.82059661e-08
-1.17223683e-20
0
8.17536143e-08
-1.76668775e-20
9.52843576e-08
-1.18388997e-20
0
0
2.95010658e-11
0
0
8.99282969e-11
1.15648735e-20
1.15648779e-20
1.55686161e-10
-5.78245606e-21
4.62596115e-20
2.32420425e-10
-1.30920917e-27
4.42367786e-27
3.26898304e-10
-1.1565016e-20
-6.1797135e-27
4.47057179e-10
-5.78254852e-21
4.62601781e-20
6.02634777e-10
-3.68707224e-27
-4.62605397e-20
8.05893163e-10
5.78266498e-21
3.26510665e-26
1.07247956e-09
7.04090888e-27
4.49827858e-26
1.42246642e-09
5.78290331e-21
6.19302e-26
1.88161208e-09
-5.78310209e-21
-4.626361e-20
2.48287992e-09
-1.15667053e-20
9.25304583e-20
3.26824753e-09
5.7836933e-21
-3.22056453e-25
4.29082373e-09
1.15683815e-20
9.25409896e-20
5.61727075e-09
0
-9.25493287e-20
7.33050005e-09
-5.78579887e-21
9.25607455e-20
9.53258652e-09
-1.1574026e-20
1.85153909e-19
1.23478633e-08
1.1577318e-20
-9.25978527e-20
1.59262991e-08
0
-9.26274762e-20
2.04476743e-08
5.79417147e-21
9.26746741e-20
2.61279895e-08
3.12002306e-21
-9.27312529e-20
3.32311609e-08
-8.44975705e-21
-9.28115847e-20
4.20909784e-08
-1.74422036e-20
-2.7881908e-19
5.31483604e-08
-5.82731005e-21
-1.86256741e-19
6.70003591e-08
-2.92365229e-20
-1.86850203e-19
8.4381544e-08
-1.17552962e-20
0
1.05653147e-07
-1.18462484e-20
1.28955526e-07
-2.39245726e-20
7.1950429e-23
-5.78241832e-21
3.06294101e-11
0
1.15648499e-20
9.33884969e-11
0
-1.15648669e-20
1.61752392e-10
7.01548903e-28
2.31297726e-20
2.41651774e-10
1.15649324e-20
-4.62596589e-20
3.40209215e-10
1.73474717e-20