/*--------------------------------*- C++ -*----------------------------------*\
| =========                 |                                                 |
| \\      /  F ield         | foam-extend: Open Source CFD                    |
|  \\    /   O peration     | Version:     4.1                                |
|   \\  /    A nd           | Web:         http://www.foam-extend.org         |
|    \\/     M anipulation  |                                                 |
\*---------------------------------------------------------------------------*/
FoamFile
{
    version     2.0;
    format      ascii;
    class       volScalarField;
    location    "0.5";
    object      p;
}
// * * * * * * * * * * * * * * * * * * * * * * * * * * * * * * * * * * * * * //

dimensions      [0 2 -2 0 0 0 0];

internalField   nonuniform List<scalar> 
35840
(
79.3758908
64.7315884
55.6666047
51.3462418
48.3953469
46.0559963
44.2159435
42.7009799
41.3750856
40.1679873
39.0423083
37.9751324
36.9517815
35.9625741
35.0007137
34.0611165
33.1398138
32.2336231
31.3399635
30.4567421
29.5822678
28.7151969
27.8544913
26.9993823
26.1493407
25.3040482
24.4633717
23.6273366
72.4958901
62.0901541
54.9045721
51.1247011
48.3557239
46.0732078
44.2531399
42.7482862
41.4243871
40.2142904
39.0839997
38.0119717
36.9839424
35.9904258
35.0247085
34.0817062
33.157411
32.2486015
31.3526598
30.467447
29.5912326
28.7226443
27.8606229
27.0043832
26.1533831
25.3072947
24.465977
23.6294481
69.3052973
60.5411604
54.1872877
50.6855463
48.1009975
45.9442508
44.1963478
42.7342713
41.4358422
40.2398371
39.1167269
38.0478223
37.0205226
36.0263731
35.0592842
34.1145161
33.1882411
32.2773265
31.3791951
30.4917342
29.6132304
28.7423212
27.8779585
27.0193731
26.1660436
25.317667
24.4741308
23.635484
67.6883121
59.3528568
53.4545392
50.2280888
47.8354935
45.8177862
44.1579285
42.7481143
41.479864
40.2999904
39.184242
38.1174992
37.0894114
36.0928954
35.1226649
34.174411
33.2445103
32.3299079
31.4280408
30.5367835
29.6544035
28.7795278
27.9111063
27.0483808
26.190855
25.3382648
24.4905479
23.647812
66.5877108
58.3849527
52.7802793
49.7959529
47.5740828
45.6846801
44.1162445
42.7662766
41.5351915
40.3771284
39.2729587
38.2111761
37.1839121
36.1857202
35.2123522
34.2601262
33.3257734
32.4064207
31.4995848
30.6031636
29.7154239
28.8349895
27.9608128
27.0921524
26.2285477
25.3697893
24.5158877
23.6670385
65.7901581
57.6584068
52.224465
49.4043805
47.3128312
45.5306929
44.047056
42.7589174
41.5706554
40.4412307
39.3553725
38.3045242
37.2830392
36.2870755
35.3134997
34.35938
33.4219357
32.4985995
31.5870717
30.6853544
29.7917793
28.9050138
28.0240497
27.1481958
26.2770589
25.4105187
24.5486955
23.691914
65.1910967
57.1003065
51.7651369
49.0540508
47.0608308
45.3654014
43.954681
42.7239575
41.5789967
40.4813776
39.4182884
38.3832446
37.3722833
36.3828659
35.4128283
34.4599402
33.521916
32.5965292
31.6817098
30.7756147
29.8766852
28.9836704
28.0956404
27.2119909
26.3324347
25.4569811
24.585907
23.7197168
64.7247987
56.6583319
51.3842757
48.7474374
46.8276976
45.2006195
43.850074
42.6695261
41.564896
40.4989445
39.4602533
38.4436602
37.446352
36.4667283
35.5033598
34.5545741
33.618499
32.693207
31.7768386
30.8677047
29.9643595
29.0656441
28.1707225
27.2790992
26.3906208
25.5054634
24.6241058
23.7472873
64.3531045
56.3024452
51.068539
48.4831297
46.6178641
45.0440892
43.7424953
42.6047067
41.5362006
40.5000824
39.4856109
38.4883965
37.506355
36.538512
35.5839475
34.6413894
33.7092679
32.7858761
31.8695129
30.9586028
30.0517827
29.1479697
28.2464138
27.3467296
26.4489113
25.5533296
24.6607075
23.772076
64.0522569
56.0124882
50.8061047
48.2571348
46.4325772
44.9004767
43.6386343
42.5369539
41.5002304
40.4914605
39.500122
38.5222093
37.5560546
36.6010627
35.6566341
34.7217517
33.7950368
32.8749155
31.9597755
31.0480944
30.1385439
29.2300796
28.3220088
27.4140412
26.5063203
25.5994322
24.6943862
23.7925655
63.8063923
55.77443
50.587651
48.065233
46.2715696
44.7723068
43.5428526
42.4716178
41.4626614
40.4786458
39.5089888
38.5498036
37.5996091
36.6579988
35.7245379
34.7983373
33.8781031
32.9623063
32.0493433
31.1376723
30.2259379
29.3130771
28.3984099
27.4817114
26.5632647
25.6438859
24.7249137
23.8081575
63.6044474
55.5782868
50.4059711
47.903448
46.1336645
44.660581
43.4577224
42.4122652
41.4275713
40.4658765
39.5163847
38.5751565
37.6407354
36.71276
35.790834
34.8740851
33.9612075
33.0506265
32.1406585
31.2296607
30.3161706
29.3990322
28.4775123
27.5514023
26.6211007
25.6876628
24.752806
23.8188561
63.4383974
55.4166902
50.2553872
47.7681814
46.0172385
44.5653469
43.3845836
42.3611382
41.3977572
40.4562358
39.5254918
38.6014319
37.6825164
36.768324
35.8583972
34.9517882
34.0470888
33.1425852
32.2364212
31.3267571
30.4119231
29.4905712
28.5618233
27.6254128
26.6818085
25.7323038
24.7790478
23.8249963
63.3022041
55.2840158
50.1313477
47.6562546
45.9205075
44.4860787
43.3239432
42.3195191
41.3750359
40.4518762
39.5386515
38.6310633
37.7274221
36.8271743
35.9297279
35.0339833
34.1383446
33.2408682
32.3394259
31.4318682
30.5161955
29.5907377
28.654344
27.7065776
26.7479
25.7798206
24.8049749
23.827093
63.1911685
55.1758355
50.0301294
47.5648707
45.8416617
44.4219068
43.275744
42.2879993
41.3604839
40.4542175
39.5575167
38.6658611
37.7773771
36.8913354
36.0069601
35.1229354
34.2374035
33.3481037
32.452528
31.5480884
30.6323038
29.7030124
28.758613
27.7983305
26.8224891
25.8327555
24.8322995
23.825806
63.1015186
55.0885593
49.9486173
47.4915513
45.7789275
44.3717577
43.2395453
42.2666688
41.3546138
40.4640964
39.5831701
38.7070993
37.8338192
36.9624088
36.0918737
35.2206362
34.346517
33.4668543
32.5786478
31.678724
30.7639355
29.831408
28.8788428
27.9048781
26.9094868
25.8943676
24.863247
23.8219869
63.0301368
55.0191947
49.8841452
47.4340743
45.7305883
44.3344351
43.2146375
42.2552434
41.3574967
40.4818736
39.6162075
38.7555756
37.8977391
37.0415841
36.1858871
35.3287862
34.4677347
33.5995959
32.7207638
31.8273161
30.915217
29.9805947
29.0201144
28.0314587
27.0139042
25.9689373
24.9008002
23.8167916
62.9743766
54.9651819
49.8343806
47.390419
45.6949866
44.3086639
43.200114
42.2531483
41.3688447
40.5075036
39.6567933
38.8116498
37.9696889
37.1296268
36.2900277
35.448746
34.6028462
33.7486603
32.8818712
31.9976342
31.0907657
30.1560367
29.188614
28.1846864
27.1422805
26.0622202
24.9490801
23.8118726
62.931937
54.9242804
49.7972405
47.358721
45.6705155
44.2931139
43.1949153
42.2595721
41.3880633
40.5405821
39.704697
38.8752531
38.0497692
37.2268432
36.4048707
35.5814544
34.7532816
33.9161285
33.0648847
32.1936155
31.2957009
30.3641132
29.3919058
28.3729932
27.3032778
26.1821119
25.0139266
23.8096762
62.900776
54.89449
49.7708327
47.3372376
45.6556105
44.2864125
43.197857
42.2734996
41.4142889
40.5803809
39.7593056
38.9458805
38.137602
37.3330242
36.5304505
35.727305
34.9199569
34.1036542
33.2724605
32.4192159
31.5355723
30.6121907
29.6392169
28.6071883
27.5085195
26.339663
25.1038358
23.8139205
62.8790525
54.8739974
49.7534143
47.3243238
45.6487425
44.2871533
43.2076448
42.2937422
41.4464226
40.6258632
39.8196246
39.0225794
38.2322907
37.4473706
36.6661441
35.8859812
35.1030577
34.3122002
33.5067009
32.6781206
31.8161405
30.908568
29.9416722
28.9011073
27.7737319
26.5506683
25.231681
23.8307812
62.8650887
54.8611413
49.7433662
47.3184177
45.648416
44.2938986
43.2229014
42.3189699
41.4831466
40.6756951
39.8842864
39.1039352
38.3323766
37.5684085
36.8105336
36.0562518
35.3017549
34.5416669
33.7687024
32.9732473
32.1429125
31.2621768
30.3123475
29.272227
28.120063
26.8376082
25.4168641
23.8704763
62.857351
54.8543909
49.7391787
47.3180364
45.6531657
44.3052048
43.2421971
42.347726
41.5229448
40.7282728
39.9515639
39.188066
38.4358028
37.6939096
36.961262
36.2357382
35.513855
34.7903989
34.0579053
33.3059528
32.520287
31.6818607
30.7660261
29.7423693
28.5761059
27.2327085
25.6876302
23.9459783
62.8544534
54.852339
49.7394396
47.3217767
45.6615853
44.319652
43.2640617
42.378455
41.5641453
40.7817592
40.0194003
39.2726379
38.5399044
37.8208366
37.1149076
36.4206809
35.7354092
35.0545783
34.3712094
33.6748337
32.9500694
32.1747905
31.3180297
30.3381012
29.1820075
27.7883943
26.0979615
24.0883441
62.8551183
54.8537037
49.7428606
47.3283341
45.6723429
44.3358519
43.2870144
42.4095532
41.6049705
40.8341388
40.0854651
39.3549165
38.6414431
37.9453416
37.2669156
36.6057547
35.9603409
35.3275603
34.7018876
34.0740717
33.4291155
32.7433233
31.9803357
31.0863348
29.9859418
28.5801241
26.7535189
24.4095472
62.8581699
54.8573444
49.7482925
47.3365094
45.6841861
44.3524789
43.3096176
42.4394242
41.6436045
40.8832972
40.147246
39.4318669
38.7367077
38.0628529
37.4116408
36.7840123
36.1801946
35.5992812
35.0384367
34.4914627
33.9463084
33.3809072
32.7565227
32.00751
31.0284391
29.6591563
27.7036494
24.9210023
62.8625974
54.8622699
49.7547168
47.3452278
45.6959864
44.3683173
43.3305271
42.4665445
41.6782765
40.927126
40.2021779
39.5003111
38.8217017
38.1682863
37.5425632
36.9470585
36.3841685
35.8559493
35.3635814
34.9062024
34.4785564
34.0664462
33.6378207
33.1253066
32.3924733
31.1703923
29.0218292
25.0890119
62.8675703
54.8676431
49.7612682
47.3535799
45.7067721
44.3823036
43.3485487
42.4895376
41.7073578
40.9636495
40.247809
39.557144
38.8924233
38.2564049
37.6527384
37.0855801
36.5596603
36.0804146
35.653969
35.2867725
34.9844912
34.7493142
34.573439
34.4237847
34.2049133
33.6674814
32.1075203
26.7649178
72.6551231
62.2130326
54.977351
51.1488844
48.3442196
46.036865
44.2001309
42.6858919
41.3586098
40.149453
39.0228924
37.9561716
36.9341377
35.9467083
34.9868124
34.0491804
33.1297318
32.2252333
31.3330877
30.4512002
29.577887
28.7118155
27.8519577
26.9975544
26.1480841
25.3032356
24.4628819
23.6270539
64.9353946
59.5411476
54.6202743
51.3464346
48.6757147
46.3630695
44.4685859
42.8975236
41.5249142
40.2806066
39.1278832
38.0419777
37.0054831
36.0067489
35.0377677
34.0926764
33.1669979
32.2572335
31.3606032
30.4748764
29.598268
28.7293679
27.8670895
27.0106276
26.1594242
25.3131386
24.4716191
23.6348748
61.6950138
58.1918554
54.1989865
51.1288508
48.5946673
46.386925
44.5334981
42.9720479
41.5996901
40.3516658
39.1935989
38.1022975
37.0608457
36.0576122
35.0845391
34.1356967
33.2065331
32.2934839
31.393719
30.504973
29.6254365
28.7536839
27.8886208
27.0294429
26.1756
25.3267658
24.4828079
23.6437588
60.1185426
57.0359245
53.5224384
50.7325795
48.3876949
46.3204168
44.5509543
43.0326841
41.6814814
40.4418953
39.284653
38.1902535
37.1440285
36.1354661
35.1570322
34.2030186
33.2689278
32.3511672
31.4468483
30.5536449
29.6696959
28.793539
27.92406
27.0604519
26.2021788
25.3489438
24.5006565
23.6574012
59.0126236
56.0367872
52.8378611
50.3184324
48.1474564
46.2039439
44.5230054
43.0625423
41.747051
40.5283303
39.3817815
38.2913599
37.2449691
36.2338074
35.2514005
34.2926729
33.3534796
32.4304019
31.5206218
30.6218287
29.7321547
28.850127
27.9746294
27.1048676
26.2403374
25.380793
24.526213
23.6767656
58.2052521
55.2917424
52.2717756
49.930713
47.8902291
46.0488527
44.4499655
43.0504576
41.7778352
40.5885579
39.4614504
38.3829787
37.3431193
36.3346909
35.3523829
34.3919191
33.4496871
32.5226087
31.6080741
30.7038963
29.8082831
28.9198145
28.037422
27.1603671
26.2882172
25.4208181
24.5582608
23.7008436
57.5981026
54.7201795
51.7999787
49.57574
47.6360376
45.8795485
44.3519118
43.0089853
41.7793926
40.6222705
39.518738
38.4570027
37.4285214
36.4273533
35.4491502
34.4903484
33.5478518
32.6189465
31.7012728
30.792815
29.8919016
28.9972074
28.1077513
27.2228894
26.3423017
25.4659695
24.5941451
23.7273106
57.124824
54.2673372
51.4079737
49.263396
47.4002301
45.711805
44.243377
42.949963
41.7603267
40.6348451
39.5560125
38.5132004
37.4988761
36.5079723
35.5368503
34.5824965
33.6422295
32.7136412
31.794592
30.8832251
29.9779883
29.0776568
28.181349
27.2885349
26.3990335
25.5129977
24.6308865
23.7534218
56.7474497
53.9032923
51.0837689
48.994235
47.1880174
45.5532084
44.1333877
42.8824387
41.7287169
40.6329892
39.5784607
38.5552195
37.5563915
36.5774961
35.6153889
34.6674491
33.7312954
32.8047416
31.8858076
30.9727496
30.0641025
29.1587197
28.2558068
27.3549462
26.4561074
25.5596404
24.6662517
23.7769594
56.4421485
53.6072201
50.8149127
48.7642577
47.0006667
45.4081248
44.0281245
42.8132605
41.691267
40.6228552
39.59149
38.5876293
37.6047836
36.6388338
35.6869497
34.7467639
33.8160858
32.8928626
31.9752005
31.0614094
30.1500606
29.2400449
28.3306249
27.4214771
26.512721
25.6049251
24.699085
23.796572
56.1928261
53.3645132
50.5915485
48.5691788
46.837962
45.2788942
43.9315286
42.7472217
41.6530328
40.6093912
39.5997376
38.6146485
37.6478087
36.6952814
35.7544
34.8229262
33.8987563
32.9798807
32.0644132
31.1506464
30.2371227
29.3227121
28.4066885
27.488795
26.56929
25.6489713
24.7291647
23.8116703
55.9882
53.1647937
50.4060774
48.4048761
46.6986704
45.1663571
43.8458886
42.6875312
41.61769
40.5964154
39.6069648
38.6398674
37.6888301
36.7499601
35.8206312
34.8986255
33.9818268
33.0681789
32.1557174
31.2426332
30.3273599
29.4086729
28.4857913
27.5584717
26.6270859
25.6926705
24.75693
23.8221836
55.8200604
53.0004051
50.2525177
48.2675921
46.5810971
45.0704665
43.7723954
42.6362397
41.5878159
40.5867743
39.6161132
38.6662155
37.7307064
36.8056359
35.8883212
34.97647
34.0678629
33.1603066
32.2516654
31.3399315
30.4233295
29.50044
28.5703339
27.6327059
26.6879956
25.7374749
24.7832797
23.8283614
55.6822202
52.8655126
50.1260973
48.1540232
46.4834029
44.9906451
43.7114805
42.5945326
41.5651149
40.5824985
39.629399
38.6960021
37.7757874
36.8646782
35.95986
35.0588885
34.1593594
33.258853
32.3549606
31.4453633
30.5279529
29.6009843
28.663251
27.7142722
26.7544744
25.7853414
24.8094934
23.8306574
55.569865
52.7555358
50.022935
48.0612775
46.4037349
44.9259922
43.663049
42.5629547
41.5506099
40.5849499
39.6484158
38.7309794
37.8259427
36.9290581
36.0373269
35.148093
34.2586964
33.3664007
32.4684167
31.5619851
30.6445135
29.7137605
28.7680623
27.8065917
26.8296285
25.8388054
24.8372716
23.8297095
55.4791351
52.6667741
49.939802
47.9868062
46.3402865
44.875415
43.6266418
42.5415756
41.5447906
40.5949408
39.6742218
38.7723995
37.8825896
37.0003526
36.1224783
35.2460568
34.368109
33.4854978
32.5949425
31.6930975
30.7767011
29.8427932
28.8890034
27.9139045
26.9174103
25.9011696
24.8688772
23.8263903
55.4068473
52.5961548
49.8739506
47.9283353
46.2913165
44.8377047
43.6015407
42.530103
41.5477201
40.6128241
39.7074076
38.8210556
37.9467083
37.0797425
36.216729
35.354478
34.489645
33.6186215
32.7375236
31.8422571
30.9286691
29.992795
29.031215
28.0415275
27.0229244
25.9768147
24.9073849
23.8219227
55.3503066
52.5410601
49.8229893
47.8838066
46.2551492
44.8115779
43.5868351
42.5279603
41.5591098
40.6385566
39.7481402
38.877302
38.0188476
37.1679956
36.3211098
35.4747199
34.6250992
33.7681137
32.8991729
32.0132628
31.1050814
30.1692989
29.2009811
28.1962033
27.1528673
26.0716699
24.9570843
23.8180917
55.307177
52.4992079
49.7847933
47.8513285
46.2301648
44.795699
43.581464
42.5343373
41.5783708
40.6717398
39.7961843
38.9410683
38.099113
37.2654228
36.4361981
35.6077255
34.7759094
33.9360689
33.0828283
32.2100905
31.3111195
30.378781
29.4060065
28.3865566
27.3161426
26.1939039
25.0240844
23.8175545
55.2753922
52.4685689
49.7574411
47.8291397
46.2147897
44.788692
43.5842438
42.5482263
41.6046457
40.7116388
39.8509245
39.0118546
38.1871296
37.3718159
36.5620309
35.7538926
34.9429991
34.1241538
33.2911701
32.4367398
31.5524093
30.6287326
29.6557124
28.623676
27.5247411
26.3549985
25.1172875
23.8242703
55.2530945
52.4473098
49.7391703
47.8155827
46.2074892
44.78915
43.5938894
42.5684433
41.6368269
40.7572128
39.911371
39.0887094
38.2820001
37.4863758
36.6979859
35.9129064
35.1265573
34.3333405
33.5263214
32.6969393
31.8347948
30.9276021
29.9614723
28.9217824
27.7949486
26.571482
25.2503543
23.8449898
55.2385958
52.4337571
49.7283499
47.809089
46.2067659
44.7956465
43.6090253
42.5936465
41.6735908
40.807132
39.9761555
39.1702164
38.3822643
37.6076268
36.8426425
36.0835321
35.3257521
34.5635294
33.7893886
32.9936392
32.1638611
31.2844793
30.3366453
29.2988062
28.1485459
26.8666442
25.4436307
23.8910668
55.2303519
52.4263738
49.7234659
47.8081756
46.2111663
44.8067373
43.6282074
42.622373
41.7134248
40.8597908
40.0435484
39.254491
38.4858622
37.7333361
36.9936367
36.2633813
35.5383766
34.8130504
34.079801
33.328203
32.54406
31.7083605
30.7963482
29.777153
28.6148669
27.2731089
25.7241685
23.9717877
55.2269448
52.4237448
49.7231119
47.8114453
46.2192807
44.8209853
43.649959
42.6530706
41.754655
40.9133498
40.1114904
39.3391959
38.5901236
37.8604581
37.1475346
36.4486758
35.7604556
35.0780486
34.3944123
33.6991801
32.9771736
32.2064828
31.356217
30.384235
29.2359853
27.8467369
26.1483517
24.1132138
55.2271006
52.4245905
49.7259981
47.817587
46.2297609
44.8369982
43.6728032
42.6841353
41.7955029
40.9657917
40.177648
39.4215918
38.6918025
37.9851334
37.2997638
36.6340634
35.9858701
35.351816
34.7264033
34.1006248
33.4598919
32.7809909
32.0278625
31.1463751
30.0597547
28.6650819
26.8316583
24.4547898
55.2296979
52.4277833
49.7309679
47.8253954
46.2413562
44.8534546
43.6953049
42.7139713
41.8341519
41.0150001
40.2395048
39.4986375
38.7871786
38.1027765
37.444657
36.8125612
36.2061075
35.6241974
35.0641322
34.5201386
33.9808547
33.4250149
32.8142702
32.0818649
31.1183381
29.7491815
27.7555801
24.8982411
55.2337554
52.4323376
49.737004
47.8338034
46.2529433
44.8691434
43.7161229
42.7410561
41.8688303
41.0588641
40.2944918
39.5671486
38.8722457
38.2082881
37.5756699
36.9757326
36.4102936
35.8812773
35.3901191
34.9366169
34.5166379
34.1174143
33.7082439
33.2208897
32.5102303
31.2589299
28.9466846
24.4623353
55.2384488
52.4374209
49.7432477
47.8419083
46.263556
44.8830054
43.7340659
42.7640146
41.8979094
41.0954062
40.3401534
39.6240149
38.9429939
38.2964184
37.6858356
37.1142232
36.5857477
36.1057507
35.6807067
35.3179553
35.0247659
34.8058654
34.6576807
34.5533832
34.4040353
33.9397841
32.3863199
25.9884784
69.7379511
60.929526
54.4917713
50.8873987
48.2108925
45.9781412
44.1698182
42.6636334
41.3362258
40.1235633
38.9930713
37.9233462
36.8995607
35.9115693
34.9520916
34.0155997
33.097773
32.1951875
31.3051067
30.4253387
29.554136
28.6901245
27.8322497
26.9797347
26.1320458
25.2888624
24.4500497
23.6156321
61.9817165
58.4770873
54.4562076
51.3320931
48.7374047
46.4743338
44.5746613
42.9775767
41.5797177
40.3144559
39.1454071
38.0477335
37.003228
35.9992672
35.0270619
34.0801607
33.153646
32.2437023
31.34733
30.4621514
29.5862813
28.7182416
27.8568976
27.0014096
26.1511936
25.3058883
24.465324
23.6294943
58.7391436
57.2439933
54.2468017
51.3092191
48.8210051
46.6439391
44.7539466
43.1314151
41.7082708
40.4231912
39.2382775
38.1281323
37.0739099
36.0621647
35.0835029
34.1310919
33.1997498
32.2854711
31.3851258
30.496248
29.6168934
28.7455444
27.8810425
27.022536
26.1694392
25.3213966
24.478251
23.6400128
57.1831228
56.1213527
53.6391834
51.0017995
48.7066736
46.6694116
44.8531609
43.256794
41.8391759
40.5509167
39.3582405
38.2385885
37.1748973
36.154364
35.1677106
34.2080691
33.2701577
32.3498377
31.4438471
30.549607
29.6650845
28.7886982
27.9192494
27.055869
26.1979735
25.3452275
24.4975077
23.6548694
56.080347
55.1201116
52.971384
50.6291963
48.515292
46.5998211
44.867444
43.3220045
41.9330345
40.660151
39.4742346
38.3556749
37.2896504
36.2648244
35.2727846
34.3071866
33.3630561
32.4364098
31.5240441
30.623388
29.7323952
28.8494676
27.9733987
27.1033273
26.2386972
25.3792203
24.5248393
23.6756904
55.2682347
54.36771
52.4066314
50.2568666
48.2776498
46.4626104
44.8106205
43.3241767
41.9755447
40.7299785
39.5621698
38.4547972
37.3948684
36.3725099
35.3803533
34.4127773
33.4653117
32.5343135
31.6167981
30.7103318
29.812957
28.9231395
28.0397295
27.1619286
26.2892582
25.4215265
24.5587928
23.7013269
54.6543314
53.7870309
51.9278726
49.9021541
48.0275325
46.2976621
44.7169591
43.2870846
41.9809371
40.7668569
39.62222
38.5314531
37.4829509
36.4680133
35.4801684
34.5144455
33.5668514
32.6340912
31.7134286
30.8026061
29.8997956
29.0035679
28.1128707
27.2270095
26.3456268
25.4686747
24.5963813
23.7292081
54.1740252
53.3249405
51.5267084
49.5848257
47.7898606
46.1288687
44.6077744
43.2279259
41.9619858
40.7795688
39.6596523
38.5879026
37.5537153
36.5492544
35.5687409
34.6077249
33.6625999
32.7303584
31.8084739
30.8948432
29.9877572
29.0858894
28.1882909
27.2943859
26.4039616
25.5171481
24.6343873
23.7563871
53.7902661
52.9527589
51.1939265
49.3094645
47.5735518
45.966984
44.4950727
43.1584166
41.9289755
40.776661
39.6812776
38.6292885
37.6107715
36.6184943
35.6471834
34.6927794
33.7519655
32.8219449
31.9003415
30.985159
30.0747706
29.1679248
28.2637587
27.361809
26.4620148
25.5647063
24.6705769
23.7806347
53.4795373
52.6498903
50.9176827
49.0734434
47.3815486
45.8179934
44.3865633
43.0867596
41.8897074
40.7651652
39.6932548
38.6608698
37.6585041
36.6793116
35.7183542
34.7718362
33.8366321
32.9100753
31.9898724
31.0740757
30.1610899
29.2496968
28.339087
27.4288897
26.5191923
25.6105419
24.7039208
23.8006951
53.2257387
52.401627
50.6881951
48.8730473
47.2144628
45.6850008
44.2868294
43.0182871
41.8496633
40.7503545
39.7004822
38.6870984
37.7009003
36.7352494
35.7853931
34.8476786
33.9190733
32.9969563
32.079041
31.1633594
30.2482846
29.3325743
28.4154266
27.4965314
26.5761125
25.6549447
24.7343405
23.8160954
53.0174698
52.1974079
50.4977381
48.7042703
47.0713273
45.5690979
44.1983653
42.9563877
41.8126666
40.7361538
39.706796
38.7116235
37.7413796
36.7894927
35.8512707
34.9230946
34.0019284
33.0851084
32.1702707
31.2553449
30.3385929
29.4186734
28.4947258
27.5664505
26.6341803
25.6989262
24.7623787
23.8268526
52.8463743
52.0293756
50.3401305
48.5632782
46.9504742
45.4702865
44.1224045
42.903153
41.7813281
40.7254278
39.7151419
38.7373704
37.782794
36.8448039
35.9186681
35.000707
34.0877903
33.1771215
32.2661668
31.3526563
30.4346407
29.5105816
28.5794658
27.6409268
26.6953607
25.7440102
24.7889942
23.8332604
52.7061249
51.8915131
50.2104052
48.4466394
46.8500051
45.3879565
44.0593519
42.8597484
41.7573363
40.7201903
39.7277161
38.7666266
37.8274713
36.9035308
35.9899578
35.0829331
34.1791496
33.2755877
32.3694419
31.4581327
30.5393761
29.6113039
28.6726207
27.7227776
26.7621507
25.7921884
24.8154909
23.8357827
52.591787
51.779089
50.1045144
48.3513323
46.7679812
45.3211433
44.0090608
42.8266787
41.7416844
40.7217783
39.7460891
38.8011219
37.8772587
36.967624
36.0672016
35.171971
34.2783742
33.3830805
32.4829076
31.5748355
30.656094
29.7243129
28.7777316
27.8154461
26.8376758
25.8460086
24.8435688
23.8350384
52.4994037
51.6882828
50.0190954
48.2746947
46.7025106
45.2686874
43.9710182
42.8039722
41.7348312
40.7309803
39.771299
38.8420894
37.933556
37.0386464
36.1521436
35.2697798
34.3876877
33.5021424
32.6094728
31.7060713
30.7884944
29.8536475
28.8990528
27.9231928
26.9259044
25.9087767
24.875471
23.8318478
52.425716
51.615929
49.9512959
48.2143605
46.6517789
45.2293201
43.9444578
42.7913001
41.7368126
40.7481284
39.8039186
38.8903073
37.9973334
37.1177686
36.2461855
35.3780486
34.5091349
33.6352522
32.7521276
31.8554051
30.9407464
30.0040435
29.0417541
28.0513643
27.0319624
25.9848716
24.9142279
23.8273266
52.3679711
51.55934
49.8986458
48.1681999
46.6140511
45.2017091
43.9284296
42.7880555
41.7473177
40.7731615
39.8441012
38.9461227
38.0691309
37.2057479
36.3503526
35.4981413
34.644513
33.7847555
32.9138938
32.0266532
31.1175416
30.1810734
29.2121679
28.2067532
27.1625815
26.0802162
24.9640451
23.8230593
52.3237904
51.5161821
49.8589621
48.1342682
46.5876624
45.1844809
43.9218418
42.7934044
41.7657383
40.8056667
39.891606
39.0094561
38.1490458
37.3028934
36.465226
35.6310025
34.7952622
33.9527547
33.0977264
32.2238215
31.3241085
30.3912791
29.4180822
28.3980716
27.3267275
26.2029648
25.030868
23.8213185
52.2910764
51.4843886
49.8302816
48.1107654
46.5710064
45.1762318
43.9234876
42.8063193
41.7912029
40.8449044
39.9458083
39.079803
38.2367051
37.4090011
36.5908423
35.777031
34.9623121
34.1409313
33.3063336
32.4509577
31.566149
30.6422627
29.6690632
28.6365711
27.5365223
26.3645936
25.1232874
23.8252594
52.2679501
51.4621007
49.8108137
48.0960082
46.562526
45.1755353
43.9320639
42.8256043
41.8225987
40.8898282
40.0057168
39.1562174
38.331215
37.5232707
36.7265798
35.9359165
35.1458627
34.3502793
33.5418802
32.7118634
31.8496271
30.9426552
29.9767355
28.9367746
27.8085344
26.5817442
25.2546143
23.8403826
52.2527092
51.4476283
49.7989095
48.0884119
46.5607092
45.1809502
43.9461873
42.8499136
41.8586032
40.9391106
40.0699727
39.2372852
38.4311151
37.644228
36.8710214
36.106431
35.3450964
34.5807291
33.8055313
33.0095979
32.1803169
31.3018486
30.3548941
29.3171494
28.1650437
26.8778796
25.4445913
23.8762673
52.2438031
51.439427
49.7930452
48.0864825
46.5640913
45.1910294
43.9644157
42.8777915
41.8977114
40.9911566
40.1368492
39.3211245
38.5343486
37.7696434
37.0218071
36.2861937
35.5578228
34.8306467
34.0967931
33.3456788
32.5629597
31.7293478
30.8194766
29.8012628
28.6366348
27.2860523
25.7179001
23.9350567
52.2398211
51.4360919
49.7918153
48.0888159
46.5712639
45.2043468
43.9852831
42.9076984
41.9382594
41.0441324
40.2042928
39.4054039
38.6382505
37.8964755
37.1755071
36.4714328
35.7800817
35.0962156
34.4126092
33.7188516
32.9997391
32.2331629
31.3875328
30.419002
29.2692705
27.8671903
26.1337172
24.0350396
52.2394871
51.4363462
49.7939332
48.0941087
46.5808953
45.2195227
44.0073272
42.9380413
41.9784783
41.0960301
40.2699793
39.4873923
38.739581
38.0208692
37.3275513
36.656798
36.0057614
35.3707558
34.7462475
34.1233967
33.4878591
32.8164847
32.0726442
31.1999839
30.1164024
28.7094785
26.8283254
24.3534888
52.2416659
51.4390408
49.7982404
48.1011758
46.5917513
45.2352471
44.0291245
42.9672371
42.0165641
41.1447457
40.3314038
39.5640582
38.8346272
38.1382428
37.4722708
36.8352978
36.226335
35.6441043
35.0861079
34.5471268
34.0166266
33.4741656
32.8814378
32.1685937
31.2173802
29.8333263
27.7668899
24.7642764
52.2453747
51.4431789
49.8037245
48.1089669
46.6027208
45.2503207
44.0493476
42.9937778
42.0507595
41.1881819
40.3860097
39.632228
38.9193907
38.2434991
37.6031132
36.9984694
36.4308728
35.9022497
35.4145823
34.9688696
34.5629954
34.1871186
33.8135951
33.3741478
32.7138045
31.4639519
29.0042019
23.9494708
52.2497935
51.4479324
49.8095351
48.1165906
46.6128492
45.2636972
44.0668193
43.0163028
42.0794499
41.224375
40.4313546
39.688803
38.9898699
38.3313896
37.7130981
37.1369143
36.6065883
36.127661
35.7075628
35.3556817
35.0831308
34.901337
34.817591
34.8213886
34.8435854
34.5940633
33.1510597
25.6775533
68.5118842
60.1179666
54.0875323
50.6920225
48.1392461
45.9804167
44.2023482
42.7011182
41.367437
40.1441156
39.002252
37.9223698
36.8903717
35.8962045
34.9323918
33.9930964
33.0736716
32.1704015
31.28031
30.4010179
29.530636
28.6676849
27.8110316
26.9598406
26.1135334
25.2717543
24.43434
23.6012913
60.8057262
57.7083113
54.1238408
51.2158876
48.7410719
46.5510506
44.6747003
43.071216
41.657196
40.3738305
39.187607
38.0753149
37.0192483
36.0065236
35.0278699
34.0763605
33.1466584
32.2346003
31.3369154
30.4510204
29.5748774
28.7068942
27.8458505
26.9908419
26.1412346
25.2966274
24.4568185
23.6217744
57.5860278
56.5121013
53.9914946
51.2916402
48.9260183
46.8203192
44.9422417
43.2946972
41.8382467
40.5222741
39.310782
38.1791303
37.1084502
36.084457
35.0967743
34.1377782
33.2016816
32.2840136
31.3812966
30.4908109
29.6104273
28.7384916
27.8737427
27.0152512
26.1623707
25.3146968
24.4720321
23.6343529
56.0572138
55.4266012
53.4327948
51.0425407
48.8753549
46.9124727
45.1052106
43.4749701
42.0139209
40.6860645
39.4596479
38.312709
37.2281415
36.1920901
35.1939629
34.2258336
33.281641
32.356667
31.447227
30.5504433
29.6640712
28.7863757
27.9160444
27.0521218
26.1939568
25.3411591
24.4935598
23.6511747
54.9707638
54.444586
52.7887893
50.7007462
48.7191486
46.8790729
45.154032
43.5705242
42.1329677
40.8159604
39.5927622
38.4441988
37.3552814
36.3134784
35.3088776
34.3339225
33.3827655
32.4507889
31.534336
30.6305222
29.7370854
28.8522757
27.9747761
27.103643
26.2382563
25.378276
24.5236014
23.6743306
54.1651832
53.7004223
52.2353238
50.344179
48.4994639
46.75953
45.1136988
43.5871708
42.187308
40.8951994
39.6883556
38.5498226
37.4662891
36.4265704
35.4216786
34.4446718
33.4901313
32.5537362
31.6320249
30.7222408
29.8222107
28.9302545
28.0451207
27.1659382
26.292174
25.423594
24.560222
23.7022975
53.5528147
53.1225765
51.7606343
49.995522
48.2566917
46.6020104
45.0271078
43.5564021
42.1978202
40.9359585
39.751372
38.6288855
37.5564932
36.5241212
35.5236183
34.5486272
33.5941507
32.6561774
31.7314692
30.8174302
29.9120098
29.0136312
28.1211434
27.2337845
26.3511498
25.4731569
24.6000069
23.7321394
53.0716
52.6603071
51.359591
49.679228
48.0209929
46.4354839
44.9201559
43.4992783
42.1804695
40.9497457
39.7894755
38.6857794
37.6276168
36.6057456
35.6126843
34.6425679
33.6907577
32.7535072
31.8277711
30.9110943
30.0015353
29.0976139
28.1982795
27.3028881
26.4111812
25.5232575
24.6395367
23.7607107
52.6859328
52.2866305
51.025277
49.4026924
47.8040525
46.2732284
44.8072051
43.4296207
42.1473042
40.946581
39.8107554
38.7267955
37.6843321
36.6747123
35.6909543
34.7275769
33.7802221
32.8453452
31.9200435
31.0019616
30.0892329
29.1804463
28.274632
27.3712552
26.4702069
25.5717855
24.6766635
23.7858353
52.3730631
51.9818634
50.746952
49.1646265
47.6102605
46.122662
44.6973311
43.3568405
42.1071015
40.9342614
39.8219914
38.7577241
37.7315047
36.7350616
35.7617503
34.806356
33.8647123
32.9334041
32.0096095
31.0910192
30.1757946
29.2625534
28.3503755
27.4388147
26.5279072
25.6181653
24.7105497
23.8064136
52.1172365
51.7317147
50.5153483
48.9620047
47.4410393
45.9876877
44.5958359
43.2868793
42.0658213
40.9184146
39.8283471
38.783226
37.7733003
36.7905053
35.8283868
34.8818789
33.9469123
33.0201205
32.0986898
31.1802908
30.2630518
29.3455648
28.4269134
27.5067084
26.5851187
25.6628826
24.741289
23.8221206
51.907182
51.525797
50.3229635
48.7911335
47.2958016
45.8697737
44.5055521
43.2234184
42.0275214
40.9031362
39.8337767
38.8070328
37.8131993
36.84428
35.8938863
34.956993
34.0295331
33.1081014