/*--------------------------------*- C++ -*----------------------------------*\
| =========                 |                                                 |
| \\      /  F ield         | foam-extend: Open Source CFD                    |
|  \\    /   O peration     | Version:     4.1                                |
|   \\  /    A nd           | Web:         http://www.foam-extend.org         |
|    \\/     M anipulation  |                                                 |
\*---------------------------------------------------------------------------*/
FoamFile
{
    version     2.0;
    format      ascii;
    class       surfaceScalarField;
    location    "0.5";
    object      phi;
}
// * * * * * * * * * * * * * * * * * * * * * * * * * * * * * * * * * * * * * //

dimensions      [0 3 -1 0 0 0 0];

internalField   nonuniform List<scalar> 
102656
(
0.000395260998
5.30266656e-05
5.17123366e-05
0.000281609493
5.82613065e-05
5.5390197e-05
0.000200388002
4.23600436e-05
3.88614466e-05
0.000148889656
2.74480134e-05
2.40503317e-05
0.000117042369
1.73741346e-05
1.44731515e-05
9.6825123e-05
1.12260365e-05
8.99120852e-06
8.35601884e-05
7.39788806e-06
5.86704581e-06
7.46490661e-05
4.89496022e-06
4.01616149e-06
6.84802616e-05
3.24903785e-06
2.91976627e-06
6.4038224e-05
2.1699521e-06
2.27208549e-06
6.07125824e-05
1.45215468e-06
1.873487e-06
5.81388433e-05
9.64689695e-07
1.60904986e-06
5.60929892e-05
6.27735545e-07
1.41811917e-06
5.44331276e-05
3.9108478e-07
1.26877778e-06
5.3066395e-05
2.22498879e-07
1.14423484e-06
5.19292657e-05
1.01282192e-07
1.03584839e-06
5.09760033e-05
1.40891151e-08
9.39174777e-07
5.01722244e-05
-4.7961006e-08
8.51741461e-07
4.94910462e-05
-9.08662849e-08
7.72046043e-07
4.89105428e-05
-1.18598887e-07
6.99103937e-07
4.84122969e-05
-1.33924385e-07
6.32171852e-07
4.79805312e-05
-1.38897537e-07
5.70664867e-07
4.76015288e-05
-1.35125308e-07
5.14129112e-07
4.7263243e-05
-1.23927804e-07
4.62214956e-07
4.69550513e-05
-1.06467738e-07
4.14660747e-07
4.66676095e-05
-8.38365878e-08
3.7127945e-07
4.63927703e-05
-5.7104308e-08
3.31944568e-07
-2.7339884e-08
2.96575794e-07
4.61235354e-05
0.000461998922
2.77115794e-05
6.3316163e-05
0.000392853459
5.22457892e-05
7.51609791e-05
0.000323886575
5.01980395e-05
6.11288865e-05
0.000266759049
4.04822653e-05
4.40932717e-05
0.000223839253
3.04899077e-05
2.98040212e-05
0.000193124429
2.23547663e-05
1.9586093e-05
0.000171287053
1.62953929e-05
1.29398709e-05
0.000155543952
1.18572255e-05
8.7808349e-06
0.000143958159
8.61424861e-06
6.22058174e-06
0.000135218088
6.25865911e-06
4.65136454e-06
0.000128452739
4.54834748e-06
3.66915712e-06
0.000123092809
3.2985496e-06
3.02607079e-06
0.000118762894
2.37641932e-06
2.58123246e-06
0.000115209965
1.68833822e-06
2.25567809e-06
0.000112259176
1.16899484e-06
2.00429565e-06
0.000109786088
7.73427834e-07
1.80094506e-06
0.000107699112
4.70871925e-07
1.63019593e-06
0.000105928265
2.40228521e-07
1.48266019e-06
0.00010441817
6.68671238e-08
1.35236427e-06
0.000103123924
-5.96228424e-08
1.23527255e-06
0.000102008255
-1.46806772e-07
1.12855386e-06
0.000101039452
-2.00300525e-07
1.03020926e-06
0.000100190016
-2.24516533e-07
9.38829383e-07
9.94358288e-05
-2.23153333e-07
8.53414929e-07
9.87555979e-05
-1.99510132e-07
7.73275273e-07
9.81305058e-05
-1.56706549e-07
6.97963984e-07
9.75439951e-05
-9.78229021e-08
6.27230967e-07
-2.59736729e-08
5.60981511e-07
9.69816489e-05
0.000447769677
1.5254751e-05
6.46871508e-05
0.000388238246
3.58422781e-05
7.59349398e-05
0.000335580945
4.0667639e-05
6.21877011e-05
0.000291761024
3.7632974e-05
4.66692104e-05
0.000257078002
3.18674866e-05
3.33054424e-05
0.000230707606
2.56782332e-05
2.30469279e-05
0.000210912242
2.01539368e-05
1.59368189e-05
0.000195900936
1.56020406e-05
1.12664904e-05
0.000184287196
1.19741907e-05
8.25379817e-06
0.000175100746
9.1342782e-06
6.31083119e-06
0.000167684733
6.93351913e-06
5.0308421e-06
0.00016159769
5.23353234e-06
4.15206195e-06
0.000156537142
3.91797595e-06
3.5189928e-06
0.000152288845
2.89470332e-06
3.04193313e-06
0.000148696043
2.09352915e-06
2.66826905e-06
0.000145640557
1.46267116e-06
2.36624512e-06
0.000143030689
9.6477499e-07
2.11596693e-06
0.000140793388
5.73207823e-07
1.90432361e-06
0.000138869064
2.69001936e-07
1.72219154e-06
0.00013720795
3.85423701e-08
1.56295052e-06
0.000135767661
-1.28165175e-07
1.4216498e-06
0.000134511571
-2.38721817e-07
1.2945134e-06
0.000133407564
-2.9919239e-07
1.1786845e-06
0.000132427145
-3.14751273e-07
1.07201773e-06
0.000131544876
-2.90164661e-07
9.72925629e-07
0.000130738016
-2.30115131e-07
8.802698e-07
0.000129986325
-1.39407971e-07
7.93276256e-07
-2.3082125e-08
7.11463419e-07
0.000129271971
0.000440472527
9.95920424e-06
6.4823019e-05
0.000375873879
2.46436073e-05
7.5797317e-05
0.000324700686
3.07171001e-05
6.11237313e-05
0.000286197243
3.08575894e-05
4.52788261e-05
0.000257839525
2.81105633e-05
3.21146407e-05
0.000237173948
2.41834619e-05
2.21603475e-05
0.000221931081
2.00747617e-05
1.53220412e-05
0.000210341972
1.63085396e-05
1.088261e-05
0.000201201197
1.30631023e-05
8.05186352e-06
0.000193742853
1.03504866e-05
6.24213649e-06
0.000187497785
8.12182919e-06
5.05675825e-06
0.00018218044
6.308381e-06
4.24249787e-06
0.000177609764
4.83929336e-06
3.64935922e-06
0.00017366151
3.65023991e-06
3.1927187e-06
0.000170242875
2.68697987e-06
2.82518601e-06
0.000167279679
1.90608943e-06
2.51977897e-06
0.00016470985
1.27409832e-06
2.26050742e-06
0.000162480001
7.65880961e-07
2.03717681e-06
0.000160543466
3.62873645e-07
1.84266544e-06
0.000158858984
5.14340563e-08
1.67159088e-06
0.000157389723
-1.78578041e-07
1.51967508e-06
0.000156102539
-3.34962548e-07
1.38342636e-06
0.000154967388
-4.24040597e-07
1.25999992e-06
0.000153956899
-4.51353026e-07
1.14709156e-06
0.000153046085
-4.2222018e-07
1.04286976e-06
0.000152212189
-3.42137103e-07
9.45919469e-07
0.000151434623
-2.17031984e-07
8.55189786e-07
-5.34025359e-08
7.69942525e-07
0.000150695002
0.000437878072
7.06286889e-06
6.50182624e-05
0.000368456821
1.77998948e-05
7.62649625e-05
0.000314729808
2.34041903e-05
6.10399215e-05
0.000276413513
2.47887169e-05
4.43851661e-05
0.000250112493
2.36940227e-05
3.07175607e-05
0.00023236795
2.13275535e-05
2.06004506e-05
0.000220182896
1.84545354e-05
1.38052795e-05
0.000211416038
1.55595521e-05
9.51584669e-06
0.000204717644
1.28848608e-05
6.87663531e-06
0.00019929175
1.05173461e-05
5.25903497e-06
0.000194695138
8.47046186e-06
4.247981e-06
0.000190693247
6.72583573e-06
3.58443702e-06
0.000187163377
5.25182472e-06
3.11733973e-06
0.000184037193
4.01316902e-06
2.76325574e-06
0.000181270519
2.97623898e-06
2.47741624e-06
0.000178828906
2.11158837e-06
2.23611429e-06
0.000176681446
1.39485668e-06
2.02670323e-06
0.000174798545
8.06704598e-07
1.84207745e-06
0.000173151397
3.32230064e-07
1.67779273e-06
0.00017171201
-3.98372345e-08
1.53065852e-06
0.000170453373
-3.18063959e-07
1.39812336e-06
0.000169349558
-5.09156004e-07
1.27800877e-06
0.000168375749
-6.18662432e-07
1.16843161e-06
0.000167508335
-6.51690326e-07
1.06775149e-06
0.000166725004
-6.13463451e-07
9.74574067e-07
0.000166004869
-5.0975265e-07
8.87750655e-07
0.000165328641
-3.47175233e-07
8.06371799e-07
-1.3335314e-07
7.29753695e-07
0.000164678838
0.000436606146
5.27589956e-06
6.51808231e-05
0.000364323822
1.34338854e-05
7.66483323e-05
0.000308254402
1.82410791e-05
6.12325295e-05
0.000268853788
2.00669824e-05
4.4122348e-05
0.000242610618
1.98820346e-05
3.00551575e-05
0.000225728847
1.85110285e-05
1.96982963e-05
0.000214859501
1.65325074e-05
1.27913735e-05
0.000207592081
1.43465646e-05
8.48040804e-06
0.000202406502
1.21907386e-05
5.87970256e-06
0.00019841046
1.01808832e-05
4.33250508e-06
0.000195112734
8.36392117e-06
3.40426769e-06
0.000192261008
6.75179319e-06
2.82576986e-06
0.000189733278
5.33884488e-06
2.44071092e-06
0.000187472495
4.11124499e-06
2.16270748e-06
0.000185450834
3.0523764e-06
1.94552428e-06
0.000183651549
2.14583233e-06
1.76504126e-06
0.000182060587
1.37695761e-06
1.60886087e-06
0.000180663278
7.33501443e-07
1.47051174e-06
0.000179443406
2.05716296e-07
1.34638672e-06
0.000178383286
-2.1391396e-07
1.23419619e-06
0.000177464113
-5.31166551e-07
1.13227543e-06
0.000176666287
-7.50590075e-07
1.03926024e-06
0.000175969814
-8.76144793e-07
9.53954439e-07
0.000175354664
-9.11822445e-07
8.75282083e-07
0.000174801105
-8.62195198e-07
8.02291431e-07
0.000174290066
-7.32875783e-07
7.34161361e-07
0.000173803537
-5.30853897e-07
6.70208102e-07
-2.64675623e-07
6.09887668e-07
0.000173324972
0.000435884327
4.09239652e-06
6.52991753e-05
0.000361911272
1.04682276e-05
7.69387124e-05
0.000304147771
1.45073252e-05
6.14972541e-05
0.00026361921
1.64105503e-05
4.41849928e-05
0.000236885202
1.67264035e-05
2.98896388e-05
0.00022003425
1.59995901e-05
1.936239e-05
0.000209562996
1.46588604e-05
1.23449019e-05
0.000202918909
1.30214056e-05
7.96924681e-06
0.000198474286
1.12963523e-05
5.33900934e-06
0.000195264548
9.60470847e-06
3.78591366e-06
0.000192752556
8.0101058e-06
2.86580844e-06
0.000190657627
6.54271583e-06
2.30400672e-06
0.000188841394
5.21385319e-06
1.9412256e-06
0.000187239056
4.02462528e-06
1.68895786e-06
0.000185821048
2.97107999e-06
1.49930433e-06
0.000184572715
2.04724856e-06
1.34691682e-06
0.000183484224
1.24691119e-06
1.21853753e-06
0.000182546039
5.64558672e-07
1.10712659e-06
0.000181747178
-4.16451643e-09
1.00874172e-06
0.000181074785
-4.62497014e-07
9.20975215e-07
0.000180514185
-8.12713261e-07
8.42146235e-07
0.0001800491
-1.05649053e-06
7.70985432e-07
0.000179662039
-1.19550572e-06
7.06422052e-07
0.000179334695
-1.23200232e-06
6.47523451e-07
0.000179048386
-1.16935826e-06
5.93471513e-07
0.000178784558
-1.0126003e-06
5.43552414e-07
0.00017852535
-7.68798613e-07
4.97153603e-07
-4.47282193e-07
4.53762241e-07
0.000178254194
0.000435448
3.25362417e-06
6.53907718e-05
0.000360404576
8.34221231e-06
7.71694385e-05
0.000301441429
1.17177239e-05
6.17527482e-05
0.000259978202
1.35260677e-05
4.434771e-05
0.000232685148
1.40949801e-05
2.99244774e-05
0.000215609551
1.37797077e-05
1.92954797e-05
0.000205168493
1.28898698e-05
1.22100494e-05
0.000198730514
1.16697847e-05
7.78960066e-06
0.000194603456
1.02934931e-05
5.12991745e-06
0.000191776893
8.87419267e-06
3.55708022e-06
0.000189683182
7.48099121e-06
2.62282553e-06
0.000188021218
6.15400769e-06
2.05067262e-06
0.00018663873
4.91536941e-06
1.680972e-06
0.000185461741
3.77651647e-06
1.42509755e-06
0.000184455135
2.7428027e-06
1.23488329e-06
0.00018360141
1.8163757e-06
1.08459677e-06
0.000182889785
9.97988566e-07
9.60547926e-07
0.000182310975
2.88103775e-07
8.55263284e-07
0.000181854952
-3.12549837e-07
7.64408427e-07
0.000181509991
-8.02791168e-07
6.85254703e-07
0.000181262381
-1.18099019e-06
6.15885764e-07
0.000181096536
-1.44549297e-06
5.54846947e-07
0.000180995205
-1.59511558e-06
5.00940894e-07
0.000180939809
-1.62975792e-06
4.5315126e-07
0.000180910915
-1.55106229e-06
4.10598041e-07
0.000180888836
-1.36303539e-06
3.72514213e-07
0.000180854358
-1.0725481e-06
3.38227767e-07
-6.89620973e-07
3.07149279e-07
0.000180789548
0.000435163036
2.62866386e-06
6.54619239e-05
0.000359406647
6.75047884e-06
7.73481227e-05
0.000299590574
9.56872866e-06
6.19650681e-05
0.000257393188
1.12071642e-05
4.45162895e-05
0.000229590324
1.18768116e-05
3.00210326e-05
0.000212225882
1.18112617e-05
1.93328891e-05
0.000201675868
1.12305744e-05
1.22093098e-05
0.00019526183
1.03192141e-05
7.76460963e-06
0.000191249944
9.21713408e-06
5.08824569e-06
0.000188598361
8.02355799e-06
3.50221812e-06
0.000186718058
6.80562563e-06
2.55566887e-06
0.000185293657
5.60717496e-06
1.97123346e-06
0.000184163127
4.45634013e-06
1.58955903e-06
0.000183245773
3.37125249e-06
1.32261782e-06
0.000182501997
2.36387845e-06
1.12269978e-06
0.000181911489
1.44256333e-06
9.64319932e-07
0.000181461861
6.13745518e-07
8.33869742e-07
0.000181143041
-1.16917929e-07
7.23841457e-07
0.000180944632
-7.43965358e-07
6.29823278e-07
0.000180854667
-1.26175916e-06
5.48932789e-07
0.000180859108
-1.66457705e-06
4.79145916e-07
0.000180941704
-1.94698104e-06
4.18891276e-07
0.000181084072
-2.10436353e-06
3.66879848e-07
0.000181265967
-2.13367217e-06
3.22019409e-07
0.000181465777
-2.03423381e-06
2.83361602e-07
0.000181661235
-1.80857279e-06
2.50079377e-07
0.00018183034
-1.46308291e-06
2.21430766e-07
-1.00843419e-06
1.96732324e-07
0.000181952421
0.00043496658
2.14521284e-06
6.55168709e-05
0.000358716015
5.51527425e-06
7.74857694e-05
0.000298283149
7.86681457e-06
6.21347811e-05
0.000255515409
9.30935901e-06
4.46655449e-05
0.000227275385
9.98871898e-06
3.01281179e-05
0.000209621394
1.00617305e-05
1.94035224e-05
0.000198911242
9.68402683e-06
1.22567005e-05
0.00019243901
8.99313767e-06
7.79830848e-06
0.000188443656
8.09917191e-06
5.11331757e-06
0.000185861046
7.08563914e-06
3.5205282e-06
0.000184086072
6.01358032e-06
2.56701987e-06
0.000182792322
4.92630092e-06
1.97462373e-06
0.000181810236
3.85430368e-06
1.58412194e-06
0.000181054024
2.81949055e-06
1.30797355e-06
0.000180480765
1.83819861e-06
1.09893825e-06
0.00018006812
9.23329905e-07
9.31877414e-07
0.000179802572
8.58863635e-08
7.93407196e-07
0.000179673488
-6.64015495e-07
6.76181031e-07
0.000179670135
-1.31643464e-06
5.7582109e-07
0.000179780197
-1.86130955e-06
4.89488688e-07
0.000179989014
-2.28856311e-06
4.15168634e-07
0.000180279218
-2.58847483e-06
3.5128989e-07
0.000180630642
-2.75236272e-06
2.96574566e-07
0.000181020527
-2.77349785e-06
2.49940697e-07
0.000181424025
-2.64817458e-06
2.10442884e-07
0.000181815045
-2.37682487e-06
1.77233147e-07
0.000182167421
-1.96500653e-06
1.49548231e-07
-1.42406268e-06
1.26696997e-07
0.000182456353
0.000434825914
1.75986308e-06
6.55594361e-05
0.000358220282
4.52850005e-06
7.75924067e-05
0.000297331275
6.48685903e-06
6.22689624e-05
0.000254119231
7.73136592e-06
4.47900382e-05
0.000225513262
8.36821899e-06
3.02264699e-05
0.000207591571
8.50537199e-06
1.94780498e-05
0.000196706631
8.2531431e-06
1.2315824e-05
0.000190137686
7.71332531e-06
7.84875777e-06
0.000186106716
6.97129342e-06
5.15884903e-06
0.000183534353
6.09547691e-06
3.56252494e-06
0.000181803601
5.13904331e-06
2.60528901e-06
0.000180579401
4.14221347e-06
2.00828755e-06
0.000179686088
3.13532809e-06
1.61228772e-06
0.000179033716
2.14183987e-06
1.33002194e-06
0.00017857672
1.18064107e-06
1.11455364e-06
0.000178291265
2.67799863e-07
9.40984168e-07
0.000178163166
-5.8214429e-07
7.96129339e-07
0.000178181594
-1.35518114e-06
6.72737043e-07
0.000178335827
-2.03716861e-06
5.66500772e-07
0.000178613447
-2.61359285e-06
4.74662937e-07
0.000178999272
-3.06965112e-06
3.95262558e-07
0.00017947472
-3.39071366e-06
3.26790293e-07
0.000180017512
-3.56316475e-06
2.68010397e-07
0.000180601725
-3.57559569e-06
2.17885323e-07
0.000181198287
-3.42026702e-06
1.75530432e-07
0.000181775979
-3.09468318e-06
1.40166684e-07
0.000182302945
-2.60305693e-06
1.11085166e-07
-1.95737146e-06
8.76146232e-08
0.000182748639
0.000434721836
1.44537832e-06
6.55926493e-05
0.000357852733
3.72192436e-06
7.76756797e-05
0.0002966184
5.34629582e-06
6.23748969e-05
0.000253056812
6.40162408e-06
4.48913302e-05
0.000224146648
6.96766864e-06
3.03107152e-05
0.000205985611
7.12034622e-06
1.95460635e-05
0.000194927435
6.93827175e-06
1.23730472e-05
0.000188244398
6.49647909e-06
7.89988358e-06
0.00018414859
5.86044621e-06
5.20665492e-06
0.00018155082
5.08514937e-06
3.60809764e-06
0.000179825812
4.21549435e-06
2.64855652e-06
0.000178632096
3.28727497e-06
2.04865434e-06
0.000177789289
2.32903159e-06
1.64910315e-06
0.000177204182
1.36416026e-06
1.36278577e-06
0.000176829193
4.12686022e-07
1.14294335e-06
0.000176639492
-5.0734483e-07
9.64846087e-07
0.000176620651
-1.37869566e-06
8.15391207e-07
0.000176762122
-2.1840038e-06
6.87352111e-07
0.000177053631
-2.90518504e-06
5.76506438e-07
0.000177483038
-3.5231374e-06
4.80137857e-07
0.000178034909
-4.01784081e-06
3.96317997e-07
0.000178689525
-4.36891304e-06
3.2358369e-07
0.000179422253
-4.5566617e-06
2.60768813e-07
0.000180203375
-4.5636399e-06
2.06922001e-07
0.000180998501
-4.37664235e-06
1.61249602e-07
0.000181769714
-3.98896281e-06
1.2306666e-07
0.000182477514
-3.40260784e-06
9.17519876e-08
-2.63003405e-06
6.67008197e-08
0.000183083476
0.000434642507
1.18403513e-06
6.56188363e-05
0.000357572093
3.05090449e-06
7.77414356e-05
0.000296069993
4.38932155e-06
6.24590749e-05
0.000252229279
5.26903352e-06
4.49733057e-05
0.000223065387
5.75053198e-06
3.0381029e-05
0.000204693
5.88785506e-06
1.96048794e-05
0.000193470031
5.73726153e-06
1.24239792e-05
0.000186666407
5.35387012e-06
7.94623236e-06
0.000182488989
4.7873852e-06
5.25047859e-06
0.000179842692
4.08119852e-06
3.65024795e-06
0.000178096892
3.27227038e-06
2.6890237e-06
0.00017690575
2.39138165e-06
2.08703404e-06
0.000176085585
1.4642591e-06
1.68493786e-06
0.000175540941
5.13094908e-07
1.39570826e-06
0.00017522299
-4.42090554e-07
1.17272745e-06
0.000175106549
-1.3822445e-06
9.91340478e-07
0.000175177613
-2.28819844e-06
8.38438241e-07
0.000175426544
-3.13979275e-06
7.0685793e-07
0.000175844162
-3.9151921e-06
5.92388714e-07
0.000176419231
-4.59052489e-06
4.92318613e-07
0.000177136593
-5.1399469e-06
4.04743976e-07
0.000177975686
-5.53625112e-06
3.28244442e-07
0.000178909446
-5.752138e-06
2.61716415e-07
0.00017990373
-5.76222024e-06
2.04296788e-07
0.000180917524
-5.54573733e-06
1.55301054e-07
0.000181904191
-5.08979979e-06
1.14169613e-07
0.000182813936
-4.39276312e-06
8.04109422e-08
-3.4670903e-06
5.35344189e-08
0.000183597458
0.000434580345
9.63923851e-07
6.56397665e-05
0.000357351818
2.48533385e-06
7.7794099e-05
0.000295636981
3.57740987e-06
6.25267504e-05
0.000251569269
4.29677442e-06
4.50399722e-05
0.000222191613
4.68885472e-06
3.04393338e-05
0.000203632705
4.79203436e-06
1.96547283e-05
0.000192255555
4.64653099e-06
1.2467881e-05
0.000185330263
4.29259073e-06
7.98657108e-06
0.000181061399
3.76744395e-06
5.28880494e-06
0.0001783507
3.1046649e-06
3.68723147e-06
0.000176564415
2.33388137e-06
2.72467393e-06
0.000175354063
1.48068008e-06
2.12105288e-06
0.000174533995
5.67348714e-07
1.71697818e-06
0.000174007562
-3.85988631e-07
1.42551591e-06
0.000173725585
-1.36023521e-06
1.20012155e-06
0.00017366342
-2.33619984e-06
1.0161207e-06
0.000173808337
-3.29357889e-06
8.60463052e-07
0.000174152521
-4.20996442e-06
7.25987174e-07
0.000174688881
-5.06001613e-06
6.08463312e-07
0.000175408107
-5.81492139e-06
5.05170346e-07
0.000176296255
-6.44230832e-06
4.14213059e-07
0.000177332617
-6.90681397e-06
3.3420104e-07
0.000178487913
-7.17152566e-06
2.6409189e-07
0.00017972306
-7.2004862e-06
2.03118142e-07
0.00018098893
-6.96233833e-06
1.50731891e-07
0.000182227553
-6.43496772e-06
1.06544652e-07
0.000183375192
-5.6106556e-06
7.02531304e-08
-4.50081187e-06
4.15413232e-08
0.000184367373
0.000434530328
7.76825829e-07
6.56567712e-05
0.000357174286
2.00439877e-06
7.78369783e-05
0.000295286248
2.88345984e-06
6.25819898e-05
0.000251030149
3.4580779e-06
4.50947961e-05
0.000221469786
3.76132009e-06
3.04878976e-05
0.000202745122
3.81984746e-06
1.96968519e-05
0.000191224175
3.66208323e-06
1.25053936e-05
0.000184178479
3.31702913e-06
8.02125781e-06
0.000179812055
2.81200056e-06
5.32186686e-06
0.000177025239
2.17227351e-06
3.71920594e-06
0.000175182762
1.42078228e-06
2.75557573e-06
0.00017393486
5.77938844e-07
2.15064277e-06
0.00017309503
-3.37829742e-07
1.74500908e-06
0.00017256643
-1.30917683e-06
1.45178707e-06
0.000172300549
-2.31874976e-06
1.22439612e-06
0.000172274251
-3.34812537e-06
1.03822298e-06
0.000172477153
-4.37671249e-06
8.80230586e-07
0.000172904517
-5.38054823e-06
7.4322049e-07
0.000173552753
-6.33118589e-06
6.22932739e-07
0.00017441602
-7.19481096e-06
5.16622623e-07
0.000175483136
-7.93180739e-06
4.22382458e-07
0.000176734577
-8.49709355e-06
3.38838663e-07
0.000178139626
-8.84158663e-06
2.65011813e-07
0.000179654069
-8.91517945e-06
2.00250258e-07
0.000181219061
-8.67151359e-06
1.44183705e-07
0.000182761986
-8.07455574e-06
9.66631713e-08
0.000184200117
-7.10645387e-06
5.76669929e-08
-5.7753837e-06
2.71567186e-08
0.000185447532
0.000434489034
6.16950471e-07
6.56708418e-05
0.000357027503
1.59340356e-06
7.78725281e-05
0.000294995003
2.28808449e-06
6.2627877e-05
0.000250579189
2.73331901e-06
4.51405739e-05
0.000220859969
2.95173798e-06
3.05288024e-05
0.000201986266
2.96086621e-06
1.97326845e-05
0.000190330592
2.78020304e-06
1.25375538e-05
0.000183166387
2.43009673e-06
8.05113682e-06
0.000178698069
1.9298895e-06
5.35042807e-06
0.000175825677
1.29776969e-06
3.74689546e-06
0.000173913489
5.50561541e-07
2.78240862e-06
0.000172611402
-2.96439376e-07
2.17646409e-06
0.000171732982
-1.22904219e-06
1.76963273e-06
0.000171182145
-2.23328687e-06
1.47494614e-06
0.000170911938
-3.29442471e-06
1.24588191e-06
0.000170901764
-4.3958176e-06
1.05786532e-06
0.000171144872
-5.51763294e-06
8.97812771e-07
0.000171641157
-6.63532172e-06
7.58487989e-07
0.000172392434
-7.71803929e-06
6.35576232e-07
0.00017339854
-8.72719496e-06
5.2627798e-07
0.000174653449
-9.61537288e-06
4.28655614e-07
0.000176141112
-1.03260977e-05
3.41341116e-07
0.000177831101
-1.07949919e-05
2.63416507e-07
0.000179674575
-1.09530229e-05
1.94369919e-07
0.000181601501
-1.07325092e-05
1.3407006e-07
0.000183520493
-1.00762639e-05
8.27159986e-08
0.000185322814
-8.94949965e-06
4.07249135e-08
-7.3528614e-06
8.51377323e-09
0.000186891778
0.000434454099
4.80139884e-07
6.56827121e-05
0.000356903166
1.24177769e-06
7.79025608e-05
0.000294747328
1.77720718e-06
6.26667167e-05
0.00025019318
2.10799617e-06
4.5179472e-05
0.000220333299
2.24784605e-06
3.05637729e-05
0.000201323694
2.20694033e-06
1.97635312e-05
0.000189540666
1.99783463e-06
1.25653952e-05
0.000182259586
1.634076e-06
8.07710019e-06
0.00017768569
1.12847089e-06
5.37531427e-06
0.000174719306
4.93069095e-07
3.7710842e-06
0.00017272485
-2.60956845e-07
2.80597447e-06
0.000171352512
-1.1234173e-06
2.19931481e-06
0.000170416637
-2.08466669e-06
1.79149926e-06
0.000169822571
-3.13481751e-06
1.49559633e-06
0.000169525703
-4.26270522e-06
1.26514841e-06
0.000169509008
-5.45465745e-06
1.07553449e-06
0.000169770745
-6.69300525e-06
9.13634287e-07
0.000170317312
-7.95402367e-06
7.72134634e-07
0.000171158344
-9.2057059e-06
6.46635003e-07
0.000172302389
-1.04054973e-05
5.34256798e-07
0.000173752109
-1.14980955e-05
4.33002349e-07
0.000175498646
-1.24141195e-05
3.41484912e-07
0.000177515144
-1.30703313e-05
2.58841695e-07
0.000179750001
-1.33726099e-05
1.84730345e-07
0.000182121154
-1.32230096e-05
1.19347874e-07
0.000184513555
-1.25320793e-05
6.3414075e-08
0.000186782679
-1.1236674e-05
1.80506582e-08
-9.32163845e-06
-1.55779245e-08
0.000188767034
0.000434423868
3.63352638e-07
6.56929203e-05
0.000356795469
9.41775465e-07
7.79284031e-05
0.000294532024
1.34044319e-06
6.27002096e-05
0.000249855616
1.57128068e-06
4.52131244e-05
0.000219868955
1.64034535e-06
3.0594162e-05
0.000200733617
1.55181162e-06
1.97904668e-05
0.000188828948
1.31270007e-06
1.25898025e-05
0.000181432009
9.31091195e-07
8.09992384e-06
0.000176748902
4.14341294e-07
5.39723568e-06
0.000173680408
-2.30947053e-07
3.79251026e-06
0.000171591338
-9.98913792e-07
2.8270265e-06
0.000170132566
-1.88443425e-06
2.21978803e-06
0.000169119516
-2.88277842e-06
1.81116084e-06
0.000168459319
-3.98891649e-06
1.51429555e-06
0.00016811032
-5.19639831e-06
1.28269247e-06
0.000168060037
-6.49607002e-06
1.09169494e-06
0.000168313135
-7.87420424e-06
9.28100751e-07
0.000168884485
-9.30986959e-06
7.84496039e-07
0.00016979451
-1.07720949e-05
6.56363241e-07
0.000171064484
-1.22161727e-05
5.40701215e-07
0.000172710771
-1.35797872e-05
4.35405287e-07
0.000174737486
-1.47798649e-05
3.39030938e-07
0.000177127128
-1.57107295e-05
2.50755763e-07
0.000179829712
-1.62456369e-05
1.7044393e-07
0.000182751981
-1.62440304e-05
9.87516682e-08
0.000185749972
-1.55672627e-05
3.71916042e-08
0.000188629928
-1.41046412e-05
-1.19887643e-08
-1.18093588e-05
-4.63294719e-08
0.000191163977
0.000434397184
2.64313963e-07
6.57018556e-05
0.000356700354
6.87592093e-07
7.79510145e-05
0.000294341238
9.69971142e-07
6.27295899e-05
0.000249554838
1.11494724e-06
4.52427335e-05
0.000219452089
1.12210665e-06
3.06209884e-05
0.000200198896
9.90683019e-07
1.98143213e-05
0.000188176914
7.23211928e-07
1.26114701e-05
0.000180664478
3.2331857e-07
8.12020806e-06
0.000175868336
-2.06343462e-07
5.41682619e-06
0.000172689603
-8.64041617e-07
3.81182669e-06
0.000170493513
-1.64885825e-06
2.84603386e-06
0.000168931554
-2.5607818e-06
2.23830591e-06
0.000167820168
-3.6004697e-06
1.82907712e-06
0.000167068366
-4.76856515e-06
1.5314498e-06
0.000166637736
-6.06465649e-06
1.29888817e-06
0.000166520936
-7.48593283e-06
1.10666302e-06
0.000166730162
-9.02490145e-06
9.41470858e-07
0.000167290983
-1.06664513e-05
7.95760189e-07
0.000168237972
-1.23839296e-05
6.64845702e-07
0.000169610028
-1.41337692e-05
5.45541307e-07
0.000171444135
-1.58494616e-05
4.35566916e-07
0.000173766059
-1.74351461e-05
3.33358147e-07
0.000176577348
-1.87601233e-05
2.38104386e-07
0.000179838477
-1.96566946e-05
1.4992869e-07
0.000183449635
-1.99253464e-05
7.01573476e-08
0.000187233656
-1.93528135e-05
1.52907137e-09
0.000190929487
-1.77486213e-05
-5.18515756e-08
-1.50038677e-05
-8.51833472e-08
0.000194209179
0.000434373253
1.81268093e-07
6.57097938e-05
0.000356615035
4.74736673e-07
7.79710745e-05
0.000294169561
6.59714031e-07
6.2755732e-05
0.000249282799
7.32554678e-07
4.52691558e-05
0.000219072422
6.87497337e-07
3.06449862e-05
0.000199707642
5.19763541e-07
1.98356994e-05
0.00018757168
2.28282129e-07
1.26308917e-05
0.000179943664
-1.87154603e-07
8.13848851e-06
0.000175030565
-7.27881315e-07
5.43463669e-06
0.000171733564
-1.39641439e-06
3.82937258e-06
0.000169417965
-2.19654083e-06
2.86328091e-06
0.000167735414
-3.13345449e-06
2.25522341e-06
0.000166502977
-4.21358792e-06
1.84555435e-06
0.000165631198
-5.44411305e-06
1.54732705e-06
0.000165084681
-6.83208673e-06
1.31394646e-06
0.000164861236
-8.38308183e-06
1.12059399e-06
0.000164981383
-1.00988756e-05
9.53826748e-07
0.000165483196
-1.19741656e-05
8.05901609e-07
0.000166418859
-1.39914842e-05
6.71892162e-07
0.000167850804
-1.61140485e-05
5.48333904e-07
0.000169845575
-1.82768969e-05
4.32664661e-07
0.000172463087
-2.03757549e-05
3.23096798e-07
0.000175739513
-2.22553232e-05
2.18774035e-07
0.000179662305
-2.36996365e-05
1.20149503e-07
0.000184137588
-2.44301897e-05
2.95599187e-08
0.000188955517
-2.41224258e-05
-4.83176339e-08
0.000193764886
-2.24520856e-05
-1.05906031e-07
-1.91892041e-05
-1.33812799e-07
0.000198084034
0.000434351551
1.12793995e-07
6.57169243e-05
0.000356537672
2.99567482e-07
7.79890491e-05
0.000294013434
4.04722206e-07
6.27792309e-05
0.00024903422
4.18795871e-07
4.52929727e-05
0.000218723271
3.31792974e-07
3.06666544e-05
0.000199252167
1.35871506e-07
1.98549959e-05
0.000187005101
-1.73168443e-07
1.26485164e-05
0.000179261377
-5.98654681e-07
8.15522342e-06
0.000174227714
-1.1451023e-06
5.45088324e-06
0.000170804848
-1.81885816e-06
3.84530881e-06
0.000168357453
-2.62817489e-06
2.87902847e-06
0.000166536608
-3.58337093e-06
2.27076083e-06
0.000165159177
-4.69692779e-06
1.8607705e-06
0.000164136305
-5.98329529e-06
1.56205445e-06
0.000163434642
-7.45836541e-06
1.32794062e-06
0.000163056469
-9.13839372e-06
1.13348507e-06
0.00016303049
-1.10379501e-05
9.65053398e-07
0.000163408116
-1.31664233e-05
8.14632315e-07
0.000164262065
-1.55223727e-05
6.76939404e-07
0.000165684719
-1.8084783e-05
5.48081237e-07
0.000167783153
-2.08003655e-05
4.25034345e-07
0.000170668349
-2.35665584e-05
3.05608085e-07
0.000174435083
-2.62108513e-05
1.88792793e-07
0.000179126863
-2.84668684e-05
7.5451709e-08
0.000184683644
-2.99563169e-05
-3.06555649e-08
0.000190876545
-3.01935466e-05
-1.21781688e-07
0.000197240361
-2.86320711e-05
-1.8383252e-07
-2.4807527e-05
-1.98399447e-07
0.000203057082
0.000434331769
5.76512617e-08
6.57233741e-05
0.000356467157
1.58938291e-07
7.80052424e-05
0.000293870723
2.00693811e-07
6.28004632e-05
0.000248806003
1.68972613e-07
4.53145443e-05
0.000218400766
5.07419961e-08
3.06862876e-05
0.000198828314
-1.64252077e-07
1.98725762e-05
0.000186473122
-4.82693165e-07
1.2664716e-05
0.00017861408
-9.10127846e-07
8.1705153e-06
0.000173457123
-1.4537618e-06
5.46561592e-06
0.00016990177
-2.12331631e-06
3.85981031e-06
0.000167311194
-2.93102749e-06
2.89342757e-06
0.000165334863
-3.89206839e-06
2.28502771e-06
0.000163788129
-5.0249886e-06
1.87479423e-06
0.00016258115
-6.35196706e-06
1.57565123e-06
0.00016168081
-7.89884599e-06
1.34082e-06
0.00016109194
-9.69470631e-06
1.14518314e-06
0.000160849673
-1.17705185e-05
9.74834942e-07
0.000161018083
-1.41561976e-05
8.21364518e-07
0.000161691817
-1.6875051e-05
6.78944817e-07
0.00016299831
-1.99342668e-05
5.42991488e-07
0.000165097081
-2.33088225e-05
4.09685611e-07
0.000168172623
-2.69181973e-05
2.76096802e-07
0.000172413254
-3.05923591e-05
1.40876014e-07
0.000177966865
-3.40260087e-05
5.52780566e-09
0.000184864204
-3.67301421e-05
-1.23515737e-07
0.000192901074
-3.79970847e-05
-2.33334291e-07
0.000201485992
-3.69188396e-05
-2.98152197e-07
-3.25793646e-05
-2.86943327e-07
0.00020954477
0.000434313827
1.45941839e-08
6.57292309e-05
0.000356402977
4.99396642e-08
7.80198491e-05
0.000293740381
4.36631477e-08
6.28196277e-05
0.000248596742
-2.14418446e-08
4.53340538e-05
0.000218103455
-1.60169002e-07
3.07041983e-05
0.000198434892
-3.84412358e-07
1.98887231e-05
0.00018597522
-7.02504643e-07
1.26794836e-05
0.00017800243
-1.12165899e-06
8.18432071e-06
0.000172720982
-1.65125131e-06
5.47893728e-06
0.000169028336
-2.30364136e-06
3.87297009e-06
0.000166285156
-3.09438372e-06
2.90653574e-06
0.000164137963
-4.04292774e-06
2.29805139e-06
0.000162398841
-5.17347846e-06
1.88761204e-06
0.000160974672
-6.51584714e-06
1.58804846e-06
0.000159829692
-8.10630133e-06
1.35243549e-06
0.000158967793
-9.98821833e-06
1.15541055e-06
0.000158426702
-1.22120992e-05
9.82672263e-07
0.000158279508
-1.48342085e-05
8.25205366e-07
0.000158640747
-1.79126005e-05
6.76311035e-07
0.000159674746
-2.14984884e-05
5.30222939e-07
0.000161603734
-2.5619464e-05
3.81653304e-07
0.000164710296
-3.02508917e-05
2.26131584e-07
0.0001693237
-3.52670166e-05
6.12514942e-08
0.00017577536
-4.0367035e-05
-1.10635176e-07
0.000184298686
-4.49760448e-05
-2.77424751e-07
0.000194832902
-4.81174475e-05
-4.13856669e-07
0.000206704894
-4.83267461e-05
-4.64089607e-07
-4.37863728e-05
-3.86426718e-07
0.000218298325