/*--------------------------------*- C++ -*----------------------------------*\
| =========                 |                                                 |
| \\      /  F ield         | foam-extend: Open Source CFD                    |
|  \\    /   O peration     | Version:     4.1                                |
|   \\  /    A nd           | Web:         http://www.foam-extend.org         |
|    \\/     M anipulation  |                                                 |
\*---------------------------------------------------------------------------*/
FoamFile
{
    version     2.0;
    format      ascii;
    class       volScalarField;
    location    "0.5";
    object      rAU;
}
// * * * * * * * * * * * * * * * * * * * * * * * * * * * * * * * * * * * * * //

dimensions      [0 0 1 0 0 0 0];

internalField   nonuniform List<scalar> 
35840
(
0.000714285817
0.000836637714
0.000924548778
0.000999613217
0.00105386484
0.00109046419
0.00111504721
0.0011317881
0.00114331975
0.0011514416
0.00115736217
0.00116183515
0.00116532104
0.00116810733
0.00117037817
0.00117225507
0.0011738217
0.00117507252
0.00117612625
0.00117703311
0.00117781894
0.00117850594
0.00117911341
0.00117965829
0.00118015551
0.00118061817
0.00118105767
0.0011814838
0.000739083825
0.000819497648
0.000880892152
0.000951172892
0.00101612394
0.00106944582
0.00111046897
0.00114131833
0.00116442866
0.00118185866
0.00119521952
0.00120567214
0.00121401182
0.00122078098
0.00122635398
0.00123099323
0.001234887
0.00123810134
0.00124082389
0.00124306326
0.00124493339
0.00124658396
0.00124805567
0.00124938432
0.00125060149
0.00125173494
0.00125280886
0.00125384401
0.000753175713
0.00083332292
0.000878398465
0.000929314366
0.000978234712
0.0010210009
0.00105596519
0.00108369725
0.00110556834
0.00112291139
0.00113682254
0.00114813441
0.00115745017
0.00116520454
0.00117171531
0.00117721847
0.0011818926
0.00118587589
0.00118927796
0.0011921033
0.00119428806
0.00119619007
0.00119790562
0.00119947176
0.00120092146
0.00120228379
0.00120358408
0.00120484391
0.000760309067
0.000850112918
0.000895623419
0.000941324853
0.000982257248
0.00101676039
0.00104457671
0.0010666322
0.00108423095
0.00109850114
0.00111028284
0.0011201653
0.00112855177
0.00113572326
0.00114188444
0.00114719116
0.00115176655
0.00115571097
0.00115910823
0.0011620298
0.00116412165
0.00116590641
0.00116754013
0.00116905491
0.00117047996
0.00117184126
0.00117316146
0.00117445963
0.000763382644
0.000860199399
0.000909774866
0.000956401346
0.00099549792
0.00102638436
0.00104993478
0.00106781909
0.00108169479
0.00109282054
0.00110204038
0.00110988219
0.00111666442
0.00112258177
0.00112776126
0.00113229387
0.00113625109
0.00113969323
0.00114267351
0.00114518767
0.00114678359
0.0011481929
0.00114950886
0.00115075679
0.00115196055
0.00115314172
0.00115431906
0.00115550804
0.000765074244
0.000866246774
0.000919348313
0.000968015117
0.00100751001
0.00103741347
0.00105911962
0.0010747888
0.00108639873
0.00109538838
0.00110268897
0.00110885616
0.00111420267
0.0011189006
0.00112304726
0.00112670264
0.00112990931
0.00113270223
0.0011351132
0.00113684416
0.00113780978
0.00113872122
0.00113959841
0.00114046185
0.00114133147
0.00114222555
0.00114315985
0.00114414682
0.000766121676
0.000870081562
0.000925796301
0.000976359265
0.00101677772
0.00104668912
0.00106773347
0.00108236208
0.00109277166
0.00110053558
0.00110665956
0.00111173575
0.00111609098
0.0011198986
0.00112324981
0.00112619449
0.00112876344
0.00113097965
0.00113285795
0.00113356514
0.00113398555
0.00113439956
0.00113482577
0.00113528369
0.00113579243
0.00113636955
0.0011370299
0.00113778461
0.00076681698
0.000872664737
0.000930309936
0.000982462912
0.00102385358
0.00105409446
0.00107496321
0.00108910535
0.00109887635
0.00110594974
0.00111138629
0.00111580518
0.00111954465
0.00112278127
0.00112560485
0.00112806136
0.0011301762
0.00113196634
0.00113303868
0.00113300268
0.0011329684
0.0011329554
0.00113298496
0.00113307911
0.00113325934
0.00113354525
0.00113395316
0.00113449492
0.000767310535
0.000874504776
0.000933599732
0.000987055273
0.00102935163
0.00106003357
0.00108095132
0.00109488291
0.00110430397
0.00111096956
0.00111598729
0.00111999961
0.00112335435
0.0011262305
0.00112871659
0.00113085533
0.00113266784
0.00113401548
0.00113399896
0.00113359892
0.00113320826
0.00113285171
0.00113255566
0.00113234714
0.00113225246
0.00113229559
0.00113249649
0.00113286949
0.000767678706
0.00087587457
0.00093608157
0.000990601357
0.00103371042
0.00106486934
0.00108595738
0.00109983969
0.00110908122
0.00111550378
0.0011202567
0.00112400514
0.00112710742
0.001129746
0.00113200895
0.00113393624
0.00113554498
0.00113583329
0.00113517125
0.00113448782
0.00113381166
0.00113317376
0.00113260701
0.00113214515
0.00113182127
0.00113166576
0.00113170417
0.00113195498
0.00076796377
0.000876931487
0.000938011472
0.000993406023
0.00103723238
0.0010688671
0.00109019254
0.00110412869
0.00111330513
0.00111959639
0.00112418778
0.00112776596
0.0011307006
0.00113317907
0.0011352903
0.00113707252
0.00113778473
0.00113707584
0.00113618762
0.00113526359
0.00113433871
0.00113345093
0.00113264082
0.00113195054
0.00113142194
0.00113109406
0.00113100023
0.00113116493
0.000768191159
0.000877771318
0.000939551837
0.000995672361
0.00104012748
0.00107221789
0.0010938151
0.00110787223
0.00111706459
0.00112330728
0.00112781539
0.00113129482
0.00113412645
0.00113650329
0.00113851611
0.00113954252
0.0011390215
0.00113802116
0.00113692672
0.00113577652
0.00113461206
0.00113347895
0.00113242686
0.00113150827
0.00113077631
0.00113028149
0.00113006778
0.00113016823
0.000768376847
0.000878454587
0.000940808385
0.00099753824
0.00104254424
0.00107506174
0.00109694504
0.00111116615
0.00112043241
0.00112668973
0.00113117723
0.00113461732
0.00113740119
0.00113972753
0.00114111292
0.00114085754
0.00113985185
0.00113867879
0.00113738023
0.00113599964
0.00113458507
0.00113319062
0.00113187654
0.00113070809
0.00112975288
0.00112907678
0.00112873848
0.00112878324
0.000768531238
0.000879020906
0.000941851857
0.000999099069
0.00104458923
0.00107750262
0.00109967424
0.00111408605
0.00112346775
0.00112978856
0.00113430681
0.00113775876
0.00114054471
0.00114236435
0.00114246752
0.00114158455
0.00114044549
0.00113909788
0.00113758637
0.00113595865
0.00113426909
0.00113258082
0.00113096638
0.00112950671
0.00112828816
0.00112739722
0.00112691313
0.00112689882
0.000768661334
0.000879496992
0.000942730712
0.00100042193
0.00104633963
0.00107961814
0.00110207331
0.00111669159
0.00112621845
0.00113264083
0.00113723245
0.00114074121
0.0011431334
0.00114372108
0.00114311463
0.00114214513
0.00114087205
0.00113934263
0.00113760239
0.00113570171
0.00113370046
0.00113167102
0.00112969984
0.00112788698
0.00112634291
0.00112518204
0.00112451262
0.00112442356
0.000768771964
0.000879901306
0.000943478812
0.0010015546
0.00104785177
0.00108146632
0.00110419627
0.00111902944
0.00112872254
0.0011352763
0.00113997699
0.00114319463
0.00114445122
0.00114430814
0.00114366737
0.00114261456
0.00114120562
0.00113948482
0.00113749586
0.00113528947
0.00113292925
0.0011304963
0.00112809223
0.00112584
0.00112388108
0.00112236777
0.00112144972
0.00112125462
0.000768866532
0.000880246861
0.000944120199
0.00100253148
0.00104916689
0.00108309041
0.00110608406
0.00112113532
0.00113100923
0.0011377176
0.0011422166
0.00114443164
0.00114499045
0.00114486629
0.00114419932
0.00114306883
0.00114152416
0.00113960322
0.00113734425
0.00113479465
0.00113201865
0.00112910408
0.00112616805
0.0011233602
0.00112086138
0.00111887541
0.0011176116
0.00111723777
0.000768947481
0.000880542989
0.000944672162
0.00100337751
0.00105031517
0.0010845224
0.00110776709
0.00112303567
0.00113309971
0.00113968024
0.00114333414
0.00114492757
0.00114555468
0.00114546232
0.0011447825
0.00114358553
0.00114191085
0.00113978572
0.0011372379
0.0011343061
0.00113104985
0.00112755942
0.0011239657
0.00112044787
0.00111723583
0.00111460324
0.00111283206
0.00111218553
0.0007690166
0.000880796488
0.000945147271
0.00100411082
0.00105131865
0.00108578555
0.00110926726
0.001124749
0.0011347421
0.00114064656
0.00114378509
0.0011454877
0.00114619967
0.00114615913
0.0011454881
0.00114424512
0.0011424559
0.00114013206
0.00113728449
0.00113393533
0.00113013072
0.0011259553
0.00112154811
0.00111711795
0.00111295366
0.00110942244
0.00110688446
0.00110584427
0.000769075224
0.000881012396
0.000945554761
0.00100474466
0.00105219325
0.00108689642
0.00111059961
0.00112604978
0.00113553489
0.00114104705
0.00114432395
0.00114615428
0.00114697529
0.00114701576
0.00114638626
0.00114513101
0.00114325794
0.00114075717
0.00113761453
0.00113382488
0.00112940787
0.00112442823
0.00111902058
0.0011134171
0.00110797263
0.00110311919
0.00109950861
0.00109783747
0.000769124383
0.000881194543
0.000945901524
0.00100528872
0.00105295036
0.00108786641
0.00111155981
0.0011266577
0.00113587812
0.00114154462
0.00114497841
0.00114696175
0.00114792446
0.00114808598
0.00114754461
0.0011463283
0.00114442358
0.00114179263
0.00113838622
0.00113415784
0.00112908202
0.00112318037
0.00111655849
0.0011094532
0.00110224751
0.00109554433
0.00109032348
0.00108762058
0.000769164912
0.000881345949
0.000946192834
0.00100575021
0.00105359813
0.00108850856
0.00111198352
0.00112693788
0.00113631566
0.00114215325
0.00114576737
0.00114793546
0.00114908118
0.0011494156
0.00114902512
0.00114792072
0.00114606465
0.00114338541
0.00113978824
0.00113516757
0.00112942658
0.00112250891
0.00111444861
0.00110544354
0.00109580275
0.001086502
0.00107881815
0.00107438943
0.000769197538
0.000881469086
0.00094643289
0.00100611309
0.00105396459
0.0010887608
0.00111219776
0.00112730113
0.00113685008
0.00114287818
0.00114669983
0.00114908974
0.00115046767
0.00115103859
0.00115087907
0.00114998436
0.00114829213
0.00114569349
0.00114203876
0.00113714457
0.00113081021
0.00112285055
0.00111315787
0.00110167303
0.0010888709
0.00107580702
0.00106425605
0.00105684143
0.00076921252
0.000881542679
0.00094656209
0.0010062657
0.00105406985
0.00108891056
0.00111247911
0.00112774185
0.00113747622
0.00114371524
0.00114777338
0.00115042545
0.00115209062
0.00115297159
0.00115313942
0.00115257812
0.00115120453
0.00114887364
0.00114537634
0.00114043608
0.0011337134
0.0011248293
0.00111334034
0.0010989364
0.0010819907
0.00106345592
0.00104557362
0.00103261337
0.000769208034
0.000881550282
0.000946578969
0.00100628367
0.00105416216
0.00108911024
0.00111281724
0.00112824828
0.001138181
0.00114465008
0.00114897281
0.00115192748
0.00115393698
0.0011552073
0.00115581102
0.00115572954
0.00115486888
0.00115305788
0.00115003462
0.00114542552
0.00113872447
0.00112928702
0.0011159977
0.00109844256
0.00107624324
0.00104989759
0.00102159677
0.000998231836
0.000769200326
0.000881535069
0.000946580415
0.00100633156
0.00105428885
0.00108934793
0.00111319746
0.00112880275
0.00113894337
0.00114565786
0.0011502691
0.00115356259
0.00115597001
0.00115770762
0.00115885919
0.00115941688
0.00115929376
0.00115831554
0.00115619419
0.00115248339
0.00114651604
0.00113705872
0.00112276074
0.0011021285
0.00107344583
0.00103584398
0.000990999409
0.000951915176
0.000769196934
0.000881532756
0.000946600488
0.00100640144
0.00105443878
0.001089609
0.00111360124
0.00112938222
0.00113973491
0.00114670363
0.00115161944
0.00115527861
0.00115812681
0.00116039816
0.00116219903
0.00116354943
0.00116439523
0.00116459743
0.00116389788
0.00116185522
0.00115769208
0.00114964227
0.00113613352
0.00111411885
0.00107929473
0.00102693993
0.000957018201
0.000901414416
0.000769196949
0.000881540179
0.000946633367
0.00100648425
0.00105459925
0.0010898766
0.00111400687
0.00112995915
0.00114052093
0.00114774372
0.00115296867
0.0011570057
0.00116031877
0.00116316671
0.00116568931
0.00116795209
0.00116996285
0.00117166627
0.00117291554
0.00117341183
0.00117226108
0.00116809488
0.00115905921
0.00114129918
0.00110811683
0.00104952958
0.000959506618
0.000881375339
0.000739802673
0.000821720901
0.00088428686
0.000955196641
0.00102016269
0.00107304165
0.00111337553
0.00114347438
0.00116589051
0.00118273353
0.00119562449
0.00120571538
0.00121378609
0.00122036287
0.00122580562
0.00123036469
0.00123421868
0.00123749946
0.00124030786
0.00124272361
0.00124481184
0.00124662721
0.00124821661
0.00124962091
0.00125087616
0.00125201434
0.00125306385
0.00125404979
0.0007529484
0.000758100817
0.000763153713
0.000796315285
0.000843043023
0.000894037684
0.000942834679
0.000986196372
0.00102312965
0.00105382304
0.00107905827
0.00109980276
0.00111695432
0.0011312516
0.00114327304
0.00115346203
0.00116215662
0.00116961662
0.00117604527
0.00118160522
0.00118642983
0.00119063105
0.00119430496
0.0011975356
0.00120039758
0.00120295786
0.00120527685
0.00120740907
0.000770705871
0.000770885326
0.000754230527
0.000761611696
0.000782823607
0.000811820489
0.00084366569
0.000875073358
0.000904267885
0.000930426283
0.000953336873
0.000973163429
0.000990240318
0.00100494134
0.00101761876
0.00102858049
0.00103808538
0.00104634746
0.00105354345
0.00105982056
0.00106530311
0.0010700979
0.00107429831
0.00107798737
0.00108124008
0.00108412494
0.00108670506
0.00108903874
0.000779770763
0.000790744716
0.000774251079
0.0007760951
0.000787816689
0.000805266222
0.000825333409
0.000845959819
0.000865985506
0.000884761605
0.000901958987
0.000917478222
0.00093135996
0.000943712901
0.000954672248
0.000964377934
0.000972963248
0.000980549884
0.000987246891
0.000993151517
0.000998350786
0.00100292324
0.00100694058
0.00101046908
0.00101357074
0.00101630419
0.00101872519
0.00102088696
0.000783420282
0.000802128978
0.000790103044
0.000794029457
0.000805254523
0.000819677978
0.000834856898
0.000849621101
0.000863569857
0.000876579357
0.00088861304
0.000899679841
0.000909812229
0.000919051263
0.000927441714
0.000935031051
0.000941868375
0.000948003245
0.000953484886
0.000958361766
0.000962681414
0.000966490448
0.000969834739
0.000972759683
0.000975310463
0.000977532236
0.000979470179
0.000981169368
0.000785373324
0.00080859941
0.000800135
0.000806890237
0.00081998162
0.00083497122
0.000849341121
0.000862154528
0.000873381311
0.000883270009
0.000892086404
0.000900045184
0.000907296281
0.000913933307
0.000920011572
0.000925564631
0.000930615371
0.000935182495
0.000939284082
0.000942939418
0.000946169804
0.000948998893
0.00095145283
0.000953560338
0.000955352738
0.000956863885
0.000958129986
0.000959189243
0.000786564599
0.000812608832
0.000806645904
0.000815653598
0.000830619517
0.000846905858
0.000861841307
0.000874486553
0.000884924642
0.000893568378
0.00090085296
0.000907137964
0.000912681345
0.000917648981
0.00092213945
0.00092620821
0.000929885467
0.00093318799
0.000936126499
0.000938710071
0.000940948685
0.000942854633
0.000944443391
0.000945734139
0.000946750051
0.000947518385
0.000948070353
0.000948440724
0.000787347743
0.000815279967
0.00081111236
0.000821856685
0.000838377897
0.000855904446
0.000871656953
0.000884671679
0.000895076726
0.000903361982
0.000910047944
0.000915573384
0.000920261462
0.000924327357
0.000927904461
0.000931071103
0.000933871111
0.000936328073
0.000938454754
0.000940259074
0.000941747885
0.000942929334
0.000943814465
0.0009444183
0.000944760582
0.000944866186
0.00094476519
0.000944492548
0.000787902101
0.000817171538
0.000814328267
0.00082642796
0.000844226924
0.000862839481
0.000879397112
0.000892909163
0.000903530331
0.000911801458
0.000918298681
0.000923511122
0.000927802682
0.000931419152
0.000934515738
0.000937185504
0.000939481517
0.000941432449
0.000943053081
0.000944351231
0.000945332223
0.000946001942
0.000946368998
0.000946446329
0.000946178521
0.000945529209
0.000944874369
0.000944246891
0.000788315394
0.000818575958
0.000816737146
0.000829909772
0.000848766624
0.000868324359
0.000885633551
0.000899670058
0.000910600284
0.000919000795
0.000925489998
0.000930595914
0.000934713633
0.000938111768
0.000940961088
0.000943364481
0.000945380478
0.000947039959
0.000948357606
0.000949339503
0.00094998825
0.000950306588
0.000949606118
0.000948671592
0.000947588286
0.000946331772
0.000945285492
0.000944482895
0.000788635616
0.000819659079
0.000818603246
0.000832638478
0.000852378023
0.000872758771
0.000890759299
0.000905318152
0.000916601343
0.000925207866
0.0009317874
0.00093689887
0.000940963166
0.0009442682
0.00094699791
0.000949263227
0.000951126623
0.000952619796
0.000953755896
0.000954537772
0.000954189608
0.000953216415
0.00095138628
0.000949513953
0.000947779264
0.000946234581
0.000944928893
0.000943905142
0.000788891503
0.000820520509
0.000820090283
0.000834830145
0.000855312502
0.000876411208
0.000895042896
0.000910108702
0.000921766476
0.000930627295
0.000937362666
0.000942555224
0.000946646856
0.000949941863
0.000952635717
0.000954846424
0.000956639742
0.000958047529
0.000958811634
0.000958063816
0.000956284987
0.000954021344
0.000951771644
0.000949600541
0.000947573946
0.000945757345
0.000944212975
0.000942996154
0.000789100944
0.000821222433
0.000821302848
0.000836627284
0.000857740756
0.000879468187
0.000898674144
0.000914224639
0.000926265215
0.000935411941
0.000942350846
0.000947682218
0.00095186457
0.000955215755
0.000957941042
0.000960164495
0.00096195449
0.00096241511
0.00096155489
0.000959235654
0.000956765124
0.000954213872
0.000951655118
0.000949165978
0.000946827021
0.000944720095
0.000942924547
0.000941512113
0.000789275505
0.000821805164
0.00082230987
0.000838126206
0.000859781211
0.000882062142
0.000901790414
0.000917800336
0.000930223533
0.000939676618
0.000946854886
0.000952371603
0.000956698298
0.00096016381
0.000962981562
0.000965280629
0.000965632533
0.000964406861
0.000962131366
0.000959581083
0.000956832077
0.000953962507
0.000951056273
0.000948204642
0.000945505841
0.000943062372
0.00094097601
0.00093934068
0.000789422925
0.000822295686
0.000823158001
0.000839393374
0.000861517412
0.000884288472
0.000904492473
0.000920935901
0.000933736428
0.000943508616
0.000950953563
0.000956694185
0.000961212182
0.000964845438
0.000967590718
0.000968305551
0.000966959536
0.000964907561
0.000962439124
0.000959634637
0.000956573409
0.000953340198
0.000950029759
0.000946749263
0.000943618214
0.000940765364
0.000938322234
0.000936413222
0.000789548519
0.000822712535
0.000823879548
0.000840475488
0.000863009085
0.000886216542
0.000906854757
0.00092370629
0.000936875687
0.000946974265
0.00095470688
0.000960703743
0.000965454925
0.000968752339
0.000970013868
0.000969075919
0.000967457886
0.00096526689
0.000962589199
0.000959502871
0.000956087747
0.000952433281
0.000948644579
0.000944846229
0.000941183183
0.000937817638
0.000934920963
0.000932660071
0.00078965602
0.000823068728
0.000824497312
0.000841405829
0.000864299324
0.000887897059
0.000908932318
0.000926167371
0.000939695017
0.000950123151
0.00095815922
0.000964439457
0.000968678054
0.000970635525
0.000970567892
0.000969621869
0.000967932569
0.000965598185
0.000962696884
0.000959300155
0.000955484352
0.000951340248
0.000946981439
0.000942550658
0.000938222737
0.000934202385
0.000930714759
0.00092797414
0.000789748102
0.000823373587
0.000825027645
0.000842208392
0.000865419426
0.000889367113
0.0009107656
0.000928360205
0.000942233677
0.00095299083
0.000961341377
0.000967013431
0.000970089095
0.000971193511
0.000971183656
0.000970242172
0.000968491799
0.000966017882
0.000962885232
0.000959153106
0.000954888533
0.000950177849
0.00094513888
0.000939931362
0.00093476397
0.000929894873
0.000925612583
0.000922221406
0.000789826722
0.000823633916
0.000825482451
0.00084290064
0.000866392188
0.000890653703
0.000912383916
0.000930314204
0.000944518991
0.000955600806
0.000963315835
0.000968020681
0.000970652385
0.000971875181
0.000971945977
0.000971033424
0.000969244875
0.000966648301
0.000963289143
0.000959206908
0.000954450232
0.000949091857
0.00094324549
0.00093708293
0.000930848486
0.000924865934
0.00091948984
0.000915219117
0.000789893343
0.00082385479
0.000825870539
0.000843495403
0.000867234236
0.000891776316
0.000913808046
0.000932049446
0.00094646349
0.000957038058
0.000963985259
0.000968575609
0.00097137468
0.000972745974
0.000972933224
0.000972089426
0.000970303478
0.000967620696
0.000964060269
0.00095963256
0.000954355078
0.000948272295
0.000941478768
0.000934146275
0.000926550802
0.000919053146
0.000912216465
0.000906700849
0.000789949103
0.000824040113
0.000826198582
0.000844002252
0.000867957749
0.000892748889
0.000915052178
0.000933367139
0.000947435518
0.000957431083
0.000964509563
0.000969300217
0.000972299983
0.000973861807
0.000974216254
0.00097349988
0.000971780358
0.000969075664
0.000965370678
0.00096063431
0.00095483698
0.000947973379
0.000940092465
0.00093134113
0.000921986428
0.000912483755
0.00090361566
0.000896295553
0.000789994924
0.000824193019
0.000826471822
0.00084442852
0.000868571789
0.000893581264
0.000915856909
0.000933953521
0.000947713624
0.000957900827
0.000965194394
0.000970217622
0.000973460409
0.000975266809
0.000975855532
0.000975346972
0.000973786183
0.000971160329
0.000967412584
0.000962456061
0.000956192963
0.000948537796
0.000939453947
0.000929015643
0.000917385505
0.000905225997
0.00089348739
0.000883473726
0.000790028697
0.000824316171
0.00082669461
0.000844780116
0.00086899925
0.000893994617
0.000916141565
0.000934170382
0.000948109198
0.000958508662
0.000966045051
0.000971338271
0.000974873917
0.000976990015
0.000977896283
0.00097769935
0.000976423101
0.000974022745
0.000970394438
0.000965383345
0.000958798674
0.000950433065
0.000940104488
0.000927640626
0.000913230951
0.000897484894
0.000881586833
0.000867341984
0.000790030398
0.000824374901
0.00082680493
0.000844925907
0.00086914138
0.000894061991
0.00091629682
0.0009344807
0.000948613939
0.000959246693
0.000967054865
0.000972658036
0.000976541143
0.000979040475
0.000980361712
0.000980603153
0.00097977297
0.000977798598
0.000974529557
0.000969736501
0.00096311311
0.000954283762
0.000942773891
0.00092814907
0.000910160759
0.000889362116
0.00086717775
0.000845994107
0.000790010767
0.000824359629
0.000826796183
0.000844905957
0.000869155791
0.000894162013
0.000916521307
0.000934870661
0.000949211931
0.000960096999
0.000968204171
0.000974156232
0.000978441949
0.000981401624
0.000983244225
0.000984068929
0.000983879326
0.000982587566
0.000980008357
0.000975843876
0.00096966284
0.0009608794
0.000948487907
0.000931406954
0.000909193802
0.000881753702
0.000849515558
0.000815145388
0.000789997636
0.000824329349
0.000826769537
0.000844906295
0.000869212655
0.000894310121
0.000916799497
0.000935321056
0.00094987981
0.000961031521
0.00096945972
0.000975794133
0.000980532396
0.000984025718
0.000986495872
0.000988056042
0.000988723205
0.000988418148
0.000986950915
0.000983988861
0.000979003757
0.000970995417
0.000958246714
0.000939262463
0.00091239989
0.00087584058
0.000828112323
0.000775031766
0.000789990147
0.000824315136
0.000826765957
0.000844934853
0.00086930109
0.000894491759
0.000917112467
0.000935807783
0.000950587304
0.000962012598
0.000970774995
0.000977514692
0.000982743195
0.000986829866
0.000990019968
0.000992456677
0.000994194447
0.000995199076
0.000995330487
0.000994301299
0.000991563913
0.000985564097
0.000974141907
0.000955333965
0.000925029786
0.000877719174
0.000808974045
0.000742566088
0.000789987318
0.000824313675
0.000826779734
0.00084498302
0.000869408954
0.000894690462
0.000917438488
0.000936302694
0.00095129838
0.000962994394
0.000972091844
0.000979244179
0.000984980883
0.000989695748
0.000993667374
0.000997084723
0.00100006555
0.00100266364
0.00100486158
0.00100654265
0.00100718252
0.00100491781
0.000998395424
0.000984888476
0.000958794155
0.000910629476
0.000830998531
0.000761863034
0.000754520227
0.000837737066
0.000885277357
0.000937746842
0.000987162022
0.0010295594
0.00106360479
0.0010901778
0.00111087056
0.00112713311
0.00114010898
0.00115064148
0.00115932684
0.00116658536
0.00117271844
0.00117794628
0.00118243324
0.00118630536
0.00118966201
0.00119258374
0.00119513753
0.00119738034
0.00119936161
0.00120112484
0.00120270877
0.00120414808
0.00120547386
0.0012067139
0.000771501384
0.000773525785
0.000758521105
0.000767402036
0.000789781921
0.00081950624
0.000851605626
0.000882853811
0.000911597402
0.000937143429
0.000959385925
0.00097856151
0.000995047232
0.00100923692
0.00102148849
0.00103210755
0.00104134693
0.00104941335
0.00105647634
0.00106267649
0.00106813235
0.00107294567
0.00107720541
0.00108099059
0.00108437235
0.00108741539
0.00109017886
0.00109271693
0.00079145376
0.000787120688
0.000747909139
0.000730792679
0.0007283959
0.00073633028
0.000750601446
0.00076806592
0.00078666835
0.000805115474
0.000822621704
0.000838780101
0.000853443265
0.000866616014
0.000878382548
0.000888862494
0.00089818497
0.000906474733
0.000913846286
0.000920402425
0.000926234897
0.000931425868
0.000936049578
0.000940173856
0.000943861373
0.000947170582
0.000950156359
0.000952870377
0.000801364452
0.000808450055
0.000768051106
0.000744582856
0.000732835484
0.000729876712
0.000733014445
0.000739979445
0.000749198832
0.000759602393
0.000770435598
0.000781187854
0.000791540171
0.000801308676
0.000810399828
0.000818779466
0.000826450736
0.000833438557
0.000839779528
0.000845515849
0.000850691867
0.000855352255
0.000859541195
0.000863302107
0.000866677663
0.000869709876
0.000872440163
0.000874909317
0.000805282334
0.00082072417
0.000784167347
0.000761967108
0.000749420939
0.00074373956
0.00074267056
0.000744521701
0.000748236408
0.000753150065
0.000758792505
0.000764818789
0.000770980006
0.000777097691
0.000783045185
0.000788735733
0.000794113313
0.000799144821
0.00080381384
0.000808115986
0.000812055552
0.000815643128
0.000818893999
0.000821827102
0.00082446435
0.000826830169
0.000828951133
0.0008308556
0.000807383431
0.00082765416
0.000794253007
0.000774204383
0.000763071453
0.000757940226
0.000756455813
0.000756994652
0.000758676369
0.000761056749
0.000763886882
0.000767009933
0.000770316229
0.000773718796
0.000777143219
0.000780525751
0.000783813456
0.000786963979
0.000789944829
0.000792732432
0.000795311075
0.000797671895
0.000799812008
0.000801733815
0.000803444463
0.000804955398
0.00080628195
0.000807442898
0.000808667767
0.000831928884
0.000800749744
0.000782419556
0.000772686447
0.000768640176
0.000767827802
0.000768564819
0.000769971767
0.000771652751
0.00077344006
0.000775272286
0.000777131739
0.000779009705
0.000780892637
0.000782760429
0.000784588775
0.000786352014
0.000788025482
0.000789587211
0.000791018975
0.000792306865
0.000793441581
0.000794418575
0.000795238085
0.000795905093
0.000796429178
0.000796824236
0.000809513674
0.0008347756
0.00080519438
0.000788189229
0.000779587333
0.000776508098
0.000776460331
0.000777721309
0.000779398347
0.000781101512
0.000782684381
0.000784118721
0.000785425789
0.000786635942
0.000787771222
0.000788841682
0.000789846988
0.000790779405
0.000791626838
0.000792375435
0.000793011591
0.000793523424
0.000793901868
0.000794141503
0.000794241154
0.000794204315
0.000794039349
0.000793759438
0.000810114205
0.000836792604
0.000808389268
0.000792421411
0.000784741263
0.000782479044
0.000783119831
0.000784916734
0.000786970722
0.000788898026
0.000790564975
0.000791960202
0.000793123653
0.000794104159
0.00079494085
0.000795658863
0.000796270581
0.000796778495
0.000797178315
0.000797461803
0.000797619094
0.000797640564
0.000797518347
0.000797247593
0.000796827488
0.00079626206
0.000795560686
0.000794738256
0.000810562589
0.000838290343
0.000810779266
0.000795634806
0.000788717013
0.000787153762
0.000788407439
0.00079070855
0.000793150288
0.000795353571
0.000797195934
0.000798680017
0.000799860027
0.000800797642
0.000801542753
0.000802129095
0.000802575637
0.000802889634
0.000803069972
0.000803110229
0.000803001269
0.000802733404
0.000802298251
0.000801690361
0.000800908632
0.000799957474
0.000798847657
0.000797596709
0.000810910062
0.000839445186
0.000812628959
0.000798147594
0.000791865966
0.000790905318
0.000792706491
0.00079547781
0.000798301609
0.000800799254
0.000802855831
0.000804485068
0.000805753119
0.000806732595
0.000807482357
0.000808042885
0.000808437738
0.00080867682
0.000808759985
0.000808680382
0.000808427378
0.000807989069
0.000807354545
0.000806515955
0.000805470454
0.00080378938
0.000802105051
0.000800450159
0.00081118758
0.000840363226
0.000814101832
0.000800162708
0.000794416499
0.000793977938
0.000796268768
0.000799476684
0.000802671577
0.000805471744
0.000807765952
0.000809575573
0.000810975983
0.000812048768
0.000812860424
0.000813457206
0.00081386644
0.000814099824
0.000814157167
0.000814029968
0.000813704631
0.000813165331
0.000811481558
0.000809670191
0.000807789086
0.000805432102
0.000803254796
0.000801303316
0.000811414526
0.000841110752
0.000815302056
0.000801813162
0.000796521875
0.000796538116
0.000799267594
0.000802879618
0.000806431482
0.000809536392
0.000812083951
0.000814100246
0.000815667318
0.000816873718
0.000817792108
0.000818473471
0.000818948099
0.000819228732
0.000819314288
0.000819129721
0.000817557715
0.000815822196
0.000813023521
0.000810220697
0.000807503123
0.000804927518
0.00080255023
0.000800424534
0.000811603491
0.000841730802
0.000816298123
0.0008031883
0.000798287297
0.000798702218
0.00080182579
0.00080581141
0.000809704556
0.000813112524
0.000815923936
0.000818167555
0.000819930113
0.000821305425
0.000822371025
0.00082318161
0.000823769602
0.000824147961
0.000823196213
0.000821687091
0.000818796248
0.000815795725
0.00081274265
0.000809698436
0.000806729119
0.000803904334
0.000801294901
0.000798969062
0.000811762944
0.00084225223
0.000817136291
0.00080434944
0.000799786324
0.000800552976
0.000804031888
0.000808363061
0.000812581441
0.000816288286
0.000819370389
0.000821857976
0.000823841033
0.000825417536
0.000826668992
0.000827652995
0.000827856531
0.000826929484
0.000824594132
0.000821732452
0.00081866123
0.000815437779
0.000812124979
0.000808793214
0.00080552097
0.000802393722
0.000799500834
0.000796930409
0.00081189872
0.000842694872
0.000817848536
0.000805339485
0.000801071166
0.000802149911
0.000805950383
0.000810601588
0.000815129339
0.000819129302
0.000822486332
0.000825231369
0.000827457026
0.000829264959
0.000830740055
0.000830762137
0.000829682639
0.000827353199
0.000824653651
0.00082163708
0.000818357152
0.000814872633