/*--------------------------------*- C++ -*----------------------------------*\
| =========                 |                                                 |
| \\      /  F ield         | foam-extend: Open Source CFD                    |
|  \\    /   O peration     | Version:     4.1                                |
|   \\  /    A nd           | Web:         http://www.foam-extend.org         |
|    \\/     M anipulation  |                                                 |
\*---------------------------------------------------------------------------*/
FoamFile
{
    version     2.0;
    format      ascii;
    class       volVectorField;
    location    "0.5";
    object      U;
}
// * * * * * * * * * * * * * * * * * * * * * * * * * * * * * * * * * * * * * //

dimensions      [0 1 -1 0 0 0 0];

internalField   nonuniform List<vector> 
35840
(
(3.94086021 0.268528681 0.261844406)
(3.20795317 0.371831978 0.357379767)
(2.43829526 0.266507496 0.249860578)
(1.72034607 0.156945717 0.141978387)
(1.29366621 0.0888178514 0.0772230378)
(1.05217852 0.0517259692 0.0439389828)
(0.893419043 0.0312064365 0.0270969079)
(0.785205928 0.0189950279 0.0180815079)
(0.711679305 0.0115235267 0.0131442247)
(0.660024732 0.00694830768 0.0104216901)
(0.62203638 0.00409373973 0.00881343908)
(0.593048782 0.00226140404 0.00773478132)
(0.570277633 0.00106104229 0.0069143957)
(0.551966494 0.000265050854 0.00623043883)
(0.536981542 -0.000265880684 0.00562820749)
(0.524566784 -0.000618030739 0.00508412622)
(0.514192481 -0.00084533212 0.00458812437)
(0.505465444 -0.000982944766 0.00413476544)
(0.498087134 -0.00105422931 0.00372023706)
(0.491816916 -0.00107421249 0.00334135071)
(0.486455151 -0.00105308042 0.00299508077)
(0.481832461 -0.000998354732 0.00267869634)
(0.477802384 -0.000915974093 0.00238991732)
(0.474236776 -0.00081088879 0.00212691233)
(0.471022737 -0.000687530847 0.00188827412)
(0.46806071 -0.00055013773 0.001672974)
(0.465263401 -0.000402921087 0.00148029231)
(0.462555287 -0.000250101483 0.00130973317)
(4.5212494 0.409953768 0.331399921)
(4.20224539 0.638138224 0.509000194)
(3.63676147 0.543498407 0.407274611)
(2.94289076 0.391293588 0.261505171)
(2.41564523 0.267507547 0.15221834)
(2.06111979 0.1815509 0.0859700307)
(1.80858742 0.124045327 0.0502548837)
(1.6243205 0.085082183 0.0317459194)
(1.49024959 0.0584807427 0.0220743722)
(1.39081261 0.0403448453 0.0169177003)
(1.31477111 0.027899606 0.0140003338)
(1.25509922 0.0192341602 0.0121430853)
(1.20729862 0.0131016203 0.0107973161)
(1.16833933 0.00869171072 0.00972315845)
(1.13614345 0.00547393953 0.00881186693)
(1.10925818 0.0031012802 0.00801130183)
(1.08663248 0.00134599124 0.0072947804)
(1.06747967 5.61008302e-05 0.00664677846)
(1.05118339 -0.000871604555 0.00605635449)
(1.03724948 -0.00150838485 0.00551456905)
(1.02527289 -0.00190509108 0.005013945)
(1.01491303 -0.0020993949 0.00454856561)
(1.00587611 -0.0021206682 0.00411399335)
(0.997905607 -0.00199332841 0.00370699599)
(0.990775601 -0.0017390173 0.00332537695)
(0.984286256 -0.00137806223 0.00296784872)
(0.978261157 -0.0009303757 0.00263389619)
(0.972545868 -0.00041588653 0.00232360975)
(4.4421335 0.221362177 0.337951957)
(4.08278412 0.436518114 0.518819187)
(3.65713711 0.463119309 0.41808942)
(3.13712288 0.408859052 0.275889174)
(2.71978353 0.33189484 0.166458067)
(2.42182086 0.257606448 0.0961050071)
(2.19810167 0.195678926 0.0564752971)
(2.02635579 0.147058573 0.0358942509)
(1.89485533 0.109805841 0.0253555608)
(1.79244279 0.0816644849 0.0198178994)
(1.7105666 0.0605604815 0.0166864932)
(1.64380097 0.0447421961 0.0146470477)
(1.58859998 0.0328327196 0.0131015747)
(1.5424586 0.0237960513 0.0118112737)
(1.50355718 0.0168760464 0.0106840311)
(1.47054861 0.0115347152 0.00968157742)
(1.44240442 0.00739535154 0.00878495296)
(1.41831514 0.00419562694 0.00798103376)
(1.3976267 0.00175204344 0.00725770423)
(1.37980009 -6.59473073e-05 0.00660313513)
(1.36437827 -0.00135325045 0.0060062454)
(1.3509699 -0.00218130084 0.00545726802)
(1.33923404 -0.00260638635 0.00494816427)
(1.32886934 -0.00267579006 0.00447269098)
(1.31960726 -0.00243208598 0.00402627093)
(1.31120771 -0.00191600837 0.00360582224)
(1.30345622 -0.00116826876 0.0032095565)
(1.29616267 -0.000230537574 0.00283674037)
(4.41370729 0.12337067 0.337929183)
(3.97527206 0.285997608 0.516843392)
(3.52614323 0.346945476 0.410945013)
(3.04826671 0.341768013 0.267056179)
(2.69650462 0.304735797 0.158688418)
(2.46049568 0.256431676 0.0893121854)
(2.28810484 0.208548861 0.0503493773)
(2.15601314 0.166270129 0.0306489336)
(2.05356948 0.130874708 0.0211772058)
(1.9717051 0.10204151 0.0166836108)
(1.90393203 0.0789216922 0.0144662994)
(1.84655403 0.060538747 0.0131678814)
(1.7974089 0.0459653067 0.0121789582)
(1.75504116 0.0344010497 0.0112797496)
(1.71838747 0.0251968819 0.0104135642)
(1.68662655 0.0178499939 0.00957819955)
(1.65908668 0.0119834652 0.00878465147)
(1.63519609 0.007320654 0.00804240862)
(1.61445791 0.00366053682 0.00735530156)
(1.59643525 0.000856959898 0.00672203532)
(1.58073963 -0.00119797623 0.00613803513)
(1.56702288 -0.00258675531 0.00559751731)
(1.55497044 -0.00337550465 0.00509449641)
(1.54429627 -0.00362110467 0.00462352168)
(1.53473924 -0.00337661487 0.00418012035)
(1.52606105 -0.0026950384 0.00376096768)
(1.51804517 -0.00163173926 0.00336388655)
(1.51049671 -0.000245731777 0.00298774036)
(4.40562829 0.0838882406 0.338530229)
(3.92709411 0.205875319 0.518667274)
(3.43458397 0.264641818 0.409525705)
(2.94274042 0.274649053 0.26103376)
(2.6054331 0.257680842 0.150311289)
(2.39688284 0.227983212 0.0806000003)
(2.25546643 0.194231459 0.0421474694)
(2.15329794 0.161505959 0.0232701027)
(2.07740261 0.132088026 0.0147413382)
(2.01793323 0.106628378 0.011188363)
(1.96848518 0.0850560271 0.0098467908)
(1.92580699 0.0670102529 0.00933226255)
(1.88831411 0.0520286659 0.00901950818)
(1.85514063 0.039642068 0.00868438351)
(1.82575449 0.029424323 0.00827786102)
(1.79977807 0.0210145527 0.00781195799)
(1.77689257 0.0141217564 0.00731359285)
(1.75679809 0.00851942344 0.00680743757)
(1.73920309 0.00403544328 0.00631062125)
(1.72382329 0.000540785142 0.00583269361)
(1.7103836 -0.002062069 0.00537760218)
(1.69861958 -0.0038488859 0.00494614529)
(1.68827747 -0.00488174994 0.00453712719)
(1.67911524 -0.00521616468 0.0041484523)
(1.6709033 -0.00490670934 0.0037779326)
(1.66342555 -0.00401122297 0.00342373987)
(1.65648089 -0.00259362347 0.00308462521)
(1.6498851 -0.000725398347 0.0027599928)
(4.40178193 0.0613581174 0.339164547)
(3.90241905 0.153225103 0.520513171)
(3.38074717 0.204412898 0.410098192)
(2.86922318 0.221085843 0.258747376)
(2.52751746 0.21575713 0.145978947)
(2.32478618 0.198097506 0.0755290087)
(2.19490707 0.174658187 0.0370215061)
(2.10725117 0.149821632 0.0183394719)
(2.04674081 0.126025761 0.0101163244)
(2.00217387 0.104338179 0.00691310865)
(1.96646065 0.0851035475 0.00592975064)
(1.93605958 0.0683249441 0.00577172886)
(1.9093228 0.0538458117 0.00580769497)
(1.88545971 0.0414440953 0.00580465698)
(1.86408821 0.0308850633 0.00570607628)
(1.84500872 0.0219499173 0.00552000165)
(1.82807958 0.0144493728 0.00527240733)
(1.81316187 0.0082280107 0.00498913276)
(1.80010236 0.00316306894 0.00468980657)
(1.78873058 -0.000840062456 0.00438701169)
(1.77886468 -0.00385443194 0.00408811562)
(1.7703115 -0.00593770957 0.00379699437)
(1.76287273 -0.00713895692 0.00351504209)
(1.75634792 -0.00750508454 0.00324229624)
(1.75053784 -0.00708632324 0.00297823351)
(1.74524796 -0.00594061692 0.00272223772)
(1.74029232 -0.00413675584 0.00247387299)
(1.73549742 -0.00175603522 0.00223303007)
(4.39956859 0.0466862336 0.339653318)
(3.88830631 0.117718648 0.521953142)
(3.34832417 0.161234751 0.411268537)
(2.82104529 0.180137267 0.258565161)
(2.47123282 0.181410007 0.14456261)
(2.26669676 0.171528649 0.0735000521)
(2.13926243 0.155435876 0.0347868031)
(2.05694565 0.136700186 0.0160488796)
(2.00346286 0.117564209 0.0078249919)
(1.96667983 0.0992353531 0.00464280592)
(1.93892323 0.0822883293 0.00368826737)
(1.91629718 0.0669509213 0.00357057838)
(1.89693874 0.0532655834 0.00366543968)
(1.87994244 0.0411806156 0.00374069859)
(1.86488451 0.0306028281 0.00373601492)
(1.85157222 0.0214276638 0.00365446574)
(1.83989931 0.0135558513 0.00351741084)
(1.82977632 0.00690178181 0.00334693764)
(1.82110357 0.00139659948 0.00315994739)
(1.81376224 -0.00301289881 0.0029673709)
(1.80761562 -0.00636719825 0.00277584391)
(1.80250828 -0.0086980677 0.00258881273)
(1.7982712 -0.0100346124 0.00240755155)
(1.79472506 -0.010409047 0.00223215798)
(1.7916844 -0.00986211432 0.00206219605)
(1.78896239 -0.00844782209 0.00189707239)
(1.78637616 -0.00623699775 0.00173626064)
(1.78375262 -0.00331918904 0.00157942884)
(4.39821782 0.0366438761 0.340042813)
(3.87961993 0.0929693186 0.52310903)
(3.32763346 0.129543448 0.41249502)
(2.78862945 0.148156374 0.259132394)
(2.43116528 0.152908846 0.144407624)
(2.22292938 0.148078023 0.0729501148)
(2.09468008 0.137271312 0.0341025429)
(2.01366951 0.123264813 0.0153184902)
(1.96292134 0.107966496 0.00705843054)
(1.9297306 0.0925568716 0.00382937958)
(1.90604383 0.0777144472 0.00281349586)
(1.88771943 0.0638035131 0.00262805719)
(1.87272697 0.0510012379 0.00266096914)
(1.86004754 0.0393782098 0.00268823617)
(1.84918578 0.0289476412 0.0026525012)
(1.83990907 0.0196951771 0.00255671087)
(1.83209411 0.0115969227 0.0024205732)
(1.82564964 0.00462991796 0.00226387806)
(1.82048261 -0.00122270931 0.00210109967)
(1.81648715 -0.00597077263 0.00194128302)
(1.81353633 -0.00961771439 0.00178949523)
(1.81148423 -0.01216429 0.00164776217)
(1.81016688 -0.0136139159 0.00151629033)
(1.80940499 -0.0139784086 0.00139435732)
(1.80900814 -0.0132839316 0.00128082584)
(1.80878006 -0.0115765014 0.00117445358)
(1.80852533 -0.00892630528 0.00107404856)
(1.80805704 -0.00543009592 0.000978540706)
(4.39732423 0.0293669612 0.34034941)
(3.87389951 0.0747826532 0.524004886)
(3.3137549 0.10538767 0.413535309)
(2.76613447 0.12258523 0.259832168)
(2.40225262 0.128950213 0.144687866)
(2.19011175 0.127294895 0.0729967144)
(2.05995649 0.120194276 0.0340829424)
(1.97859427 0.109756818 0.0152887661)
(1.92861352 0.0975380758 0.0070158369)
(1.89693004 0.0846009039 0.00375559415)
(1.87522582 0.0716346061 0.00268760489)
(1.85918589 0.059068083 0.00243441007)
(1.84666251 0.0471605349 0.00239352506)
(1.83655585 0.0360662146 0.0023493095)
(1.82831577 0.0258767294 0.00224944649)
(1.82167423 0.0166482919 0.00209931165)
(1.81648685 0.00841950446 0.00191942013)
(1.8126511 0.00122261747 0.00172936463)
(1.81006944 -0.00491052738 0.00154300961)
(1.80863294 -0.00994575157 0.00136876679)
(1.80821298 -0.01384683 0.00121080388)
(1.80865918 -0.0165792462 0.0010703385)
(1.80979899 -0.0181153533 0.000946917584)
(1.81143947 -0.0184408409 0.000839240836)
(1.81337119 -0.0175619475 0.000745608186)
(1.81537413 -0.0155124513 0.000664228783)
(1.8172259 -0.0123593029 0.000593310838)
(1.81871175 -0.00820588436 0.000531050808)
(4.39669985 0.0238495777 0.340586694)
(3.86994234 0.060878653 0.52469102)
(3.30407316 0.0864599476 0.414369561)
(2.75007257 0.101800534 0.260483737)
(2.38098212 0.108631315 0.14508745)
(2.16523055 0.108827823 0.0732508631)
(2.03286458 0.104214981 0.0342984682)
(1.95045304 0.0963723847 0.0155052112)
(1.90031008 0.0865350311 0.00723226745)
(1.86909244 0.075612361 0.00395873931)
(1.84828843 0.0642477984 0.00286115061)
(1.83344946 0.0528821827 0.00256417697)
(1.82233633 0.0418141315 0.00247090858)
(1.81378722 0.0312486964 0.00237133006)
(1.80721084 0.0213314446 0.00221706308)
(1.80231321 0.0121717444 0.00201583909)
(1.79893485 0.00385901523 0.00178946145)
(1.79696527 -0.00352649511 0.00155812046)
(1.79630335 -0.00990719847 0.0013360958)
(1.79683703 -0.0152048689 0.00113190647)
(1.7984337 -0.0193413506 0.000949555444)
(1.80093482 -0.0222422593 0.000790156055)
(1.8041538 -0.0238429781 0.00065321693)
(1.80787666 -0.0240966475 0.000537411319)
(1.8118655 -0.0229833757 0.000440952028)
(1.81586516 -0.0205195894 0.000361802776)
(1.81961315 -0.0167660023 0.000297868941)
(1.82285277 -0.0118326339 0.000247120402)
(4.39624727 0.0195218099 0.340769658)
(3.86709869 0.0499124096 0.525218281)
(3.29708516 0.0712626621 0.415028389)
(2.73828581 0.0846282537 0.261038606)
(2.36500755 0.0912446641 0.145482248)
(2.14608163 0.0923929993 0.0735493507)
(2.01151491 0.0893672449 0.0345696542)
(1.92776731 0.0833402893 0.015777009)
(1.87699063 0.0752756141 0.00750572836)
(1.84567128 0.0659268096 0.00422594067)
(1.82515979 0.0558642422 0.00311164326)
(1.81090504 0.0455077289 0.00278830961)
(1.80059417 0.0351647451 0.00266203656)
(1.79301447 0.0250654539 0.00252605656)
(1.78754124 0.0153890704 0.00233436242)
(1.78386039 0.00628296885 0.00209614197)
(1.78180201 -0.00212330917 0.00183402392)
(1.78125197 -0.00970802831 0.00156884305)
(1.78210866 -0.0163505662 0.00131539069)
(1.7842604 -0.0219285667 0.00108231249)
(1.78757205 -0.0263188977 0.000873794332)
(1.79187704 -0.029401799 0.000691234456)
(1.79697288 -0.0310683417 0.000534363688)
(1.80261984 -0.031230754 0.000402007672)
(1.80854354 -0.0298347381 0.000292586081)
(1.81444222 -0.0268724635 0.000204324328)
(1.81999915 -0.0223943306 0.000135332217)
(1.82489998 -0.0165171171 8.36019365e-05)
(4.39590864 0.0160348404 0.340911128)
(3.86498649 0.0410399256 0.525626288)
(3.29188371 0.0588016421 0.415547101)
(2.7294067 0.0702337717 0.261494453)
(2.35275403 0.0762550461 0.145831533)
(2.13109388 0.0777611509 0.0738326281)
(1.99446247 0.0756736147 0.034832133)
(1.90928626 0.0708589919 0.0160374931)
(1.85763001 0.0640599807 0.00776549428)
(1.82587448 0.0558874454 0.0044803226)
(1.80527772 0.0468296669 0.0033543075)
(1.79121451 0.0372671582 0.00301335937)
(1.78131562 0.0274960603 0.00286531146)
(1.77432829 0.0177528476 0.00270523383)
(1.76960165 0.0082343801 0.00248839285)
(1.76680672 -0.000886787936 0.00222465206)
(1.76576762 -0.00945031402 0.00193712268)
(1.76637096 -0.0172986111 0.00164708579)
(1.76851938 -0.0242705511 0.00136941908)
(1.77210544 -0.0301988958 0.0011128596)
(1.77699488 -0.0349113237 0.000881753167)
(1.78301507 -0.0382355045 0.000677717187)
(1.78994702 -0.0400084561 0.000500773934)
(1.79752118 -0.040090028 0.000350148644)
(1.80541835 -0.0383797696 0.000224704056)
(1.81327709 -0.0348354849 0.000123120629)
(1.82070888 -0.0294908719 4.39299768e-05)
(1.82732102 -0.022468746 -1.45595128e-05)
(4.39564793 0.0131658792 0.341021355)
(3.86337036 0.0337167599 0.525945451)
(3.28790037 0.0484118795 0.415957969)
(2.72254539 0.0580253657 0.261865319)
(2.3431471 0.0632539868 0.146128509)
(2.11914305 0.0647345271 0.0740830505)
(1.98062312 0.0631267292 0.0350663471)
(1.89402011 0.0590688612 0.0162678611)
(1.84135934 0.0531277613 0.00799284384)
(1.80896078 0.0457898401 0.00470172462)
(1.78802466 0.0374619404 0.00356583443)
(1.77387626 0.0284764886 0.00321143778)
(1.76410697 0.0191056623 0.00304748759)
(1.7574358 0.00957891853 0.00287012233)
(1.75319421 9.82266734e-05 0.00263521563)
(1.75104504 -0.0091493547 0.00235301673)
(1.75081299 -0.0179806702 0.00204696406)
(1.75239169 -0.0262075119 0.00173832178)
(1.75569422 -0.0336304454 0.00144181893)
(1.76062372 -0.040035791 0.00116617127)
(1.76705275 -0.045196596 0.000915806317)
(1.77480699 -0.0488785416 0.000692508604)
(1.78365238 -0.0508515186 0.000496583975)
(1.79328648 -0.0509071859 0.000327669284)
(1.80333606 -0.0488819956 0.000185141808)
(1.81336377 -0.0446838468 6.83030848e-05)
(1.82288603 -0.0383188848 -2.36314082e-05)
(1.83140337 -0.0299132415 -9.17119473e-05)
(4.39544187 0.0107678235 0.341108328)
(3.86209939 0.0275806336 0.526198778)
(3.28476631 0.0396378945 0.416287281)
(2.71710825 0.0475771665 0.262167926)
(2.33544311 0.0519270669 0.146377834)
(2.10942054 0.0531428423 0.0742986303)
(1.96918728 0.0516978335 0.0352693481)
(1.88120091 0.0480602096 0.0164664241)
(1.82747563 0.0426578026 0.00818725733)
(1.79430033 0.0358710016 0.00488994396)
(1.77284252 0.0280303392 0.00374526196)
(1.75839771 0.019416934 0.00337979561)
(1.74853313 0.0102713291 0.00320326238)
(1.74195117 0.00080625678 0.00301239519)
(1.73797498 -0.00878127955 0.00276347855)
(1.73626815 -0.0182987324 0.002467115)
(1.73666444 -0.027547595 0.00214667831)
(1.73907297 -0.0363143674 0.00182310039)
(1.74342667 -0.0443634131 0.00151091129)
(1.74964939 -0.051432749 0.00121871434)
(1.75763043 -0.0572342235 0.000950916068)
(1.76720223 -0.0614596577 0.000709383287)
(1.77812075 -0.0637944965 0.000494630027)
(1.79004984 -0.063940171 0.000306665961)
(1.80255298 -0.0616452763 0.000145459811)
(1.81509702 -0.0567438436 1.11350905e-05)
(1.8270724 -0.0491962599 -9.60848844e-05)
(1.8378329 -0.0391251838 -0.000176192882)
(4.39527492 0.00874064401 0.341178143)
(3.86107347 0.0223836619 0.526403438)
(3.28223518 0.032161273 0.416555368)
(2.71269081 0.0385800179 0.262417326)
(2.32912074 0.0420335796 0.14658736)
(2.10134128 0.0428439787 0.0744830511)
(1.95955047 0.0413489621 0.035444107)
(1.87023706 0.0378889055 0.0166369751)
(1.81541981 0.0327815728 0.00835346137)
(1.7813753 0.0263177083 0.00505022756)
(1.75925547 0.0187580849 0.00389777722)
(1.74434099 0.0103321183 0.00352296018)
(1.73418722 0.00124373411 0.00333598452)
(1.72749034 -0.00831867078 0.00313408312)
(1.72357521 -0.0181714696 0.00287403221)
(1.72211588 -0.0281251532 0.00256640194)
(1.72296493 -0.0379737744 0.00223412446)
(1.72605839 -0.0474845919 0.00189779541)
(1.73136218 -0.0563887398 0.00157169738)
(1.73883558 -0.0643745419 0.00126423005)
(1.74840014 -0.071085435 0.000979629593)
(1.75990984 -0.0761249684 0.000719685639)
(1.77312187 -0.0790716733 0.000485004046)
(1.78767028 -0.0795064677 0.00027590902)
(1.80304753 -0.07705412 9.30155347e-05)
(1.8186013 -0.0714378263 -6.24915846e-05)
(1.8335549 -0.0625417038 -0.000188911684)
(1.84705853 -0.0504702743 -0.000284515815)
(4.39513647 0.00701465609 0.341235381)
(3.86022455 0.0179523717 0.526572145)
(3.28013869 0.0257556579 0.416777606)
(2.70901263 0.0308078107 0.262625854)
(2.32381036 0.0333901109 0.146764968)
(2.09447962 0.0337225781 0.0746414695)
(1.95126116 0.0320416903 0.0355951456)
(1.86067494 0.0285903577 0.0167844)
(1.8047519 0.023598342 0.00849685284)
(1.7697672 0.0172802916 0.00518828303)
(1.74686833 0.00983355909 0.00402906601)
(1.73133123 0.00143632315 0.00364621736)
(1.72070862 -0.00774795133 0.00345047422)
(1.71369974 -0.0175614879 0.00323977684)
(1.70964031 -0.0278421201 0.00297096756)
(1.70822402 -0.0384126623 0.00265415126)
(1.70933357 -0.0490690171 0.00231184824)
(1.71294572 -0.0595671344 0.00196434294)
(1.71907638 -0.0696100775 0.00162555998)
(1.72774057 -0.0788369067 0.00130351213)
(1.73891514 -0.0868159675 0.00100208867)
(1.75249938 -0.0930462059 0.000722796704)
(1.76827265 -0.0969710686 0.000466113223)
(1.78585177 -0.0980100526 0.000232514131)
(1.80465528 -0.0956121861 2.32485366e-05)
(1.82388576 -0.0893327957 -0.000159160948)
(1.84254524 -0.078928599 -0.00031084428)
(1.85949862 -0.0644564345 -0.000427290267)
(4.39501911 0.00554031052 0.34128345)
(3.85950549 0.01416299 0.526714258)
(3.27835994 0.0202576635 0.416965463)
(2.70587677 0.0240938837 0.262803142)
(2.3192479 0.0258573987 0.146917428)
(2.08852515 0.0256873864 0.0747788321)
(1.94398287 0.0237425391 0.0357268669)
(1.85216917 0.0201899304 0.0169131832)
(1.79512952 0.0151878536 0.00862209923)
(1.75914319 0.00888561439 0.00530881893)
(1.7353592 0.00142229544 0.00414362118)
(1.71905484 -0.00707487318 0.0037538987)
(1.70778706 -0.0164859952 0.00355126976)
(1.700265 -0.026690107 0.00333388295)
(1.69584204 -0.0375555458 0.00305817084)
(1.6942404 -0.0489283943 0.0027338477)
(1.69538452 -0.0606181228 0.00238314079)
(1.69930762 -0.072380806 0.00202589441)
(1.70609646 -0.0839007081 0.00167551541)
(1.71584858 -0.0947720973 0.00133945924)
(1.72862873 -0.104484389 0.00102103062)
(1.744418 -0.112415458 0.000721146428)
(1.7630539 -0.117840116 0.000439783762)
(1.78416376 -0.119962537 0.00017721201)
(1.80710024 -0.117981886 -6.48719719e-05)
(1.83089586 -0.111197822 -0.000282359661)
(1.85426116 -0.0991539115 -0.000468253659)
(1.87565672 -0.0818020504 -0.000613657563)
(4.39491766 0.00428169578 0.341324851)
(3.85888335 0.0109255817 0.52683661)
(3.27681705 0.0155475818 0.417127378)
(2.70314415 0.0183143265 0.262956485)
(2.31524445 0.0193298695 0.147050148)
(2.08325233 0.0186677698 0.0748993023)
(1.93746706 0.0164253881 0.035842982)
(1.84446026 0.0127094931 0.0170269487)
(1.78629118 0.00761927573 0.00873274992)
(1.74924434 0.0012467605 0.00541513975)
(1.72447239 -0.0063234578 0.0042446864)
(1.70725744 -0.0150146888 0.00384969454)
(1.69516414 -0.0247538322 0.00364203808)
(1.68691466 -0.0354639662 0.00341957337)
(1.68188475 -0.0470545013 0.00313848524)
(1.67983233 -0.0594080187 0.00280826523)
(1.6807346 -0.0723631375 0.00245073029)
(1.68469768 -0.0856928345 0.00208518702)
(1.69190329 -0.0990786062 0.00172439877)
(1.70256535 -0.112081954 0.00137507901)
(1.71688089 -0.124116361 0.00103966268)
(1.73496673 -0.134425852 0.000718055215)
(1.75677729 -0.142079979 0.000409160893)
(1.78200366 -0.14599934 0.000112378363)
(1.80996326 -0.145029233 -0.000170683699)
(1.83950285 -0.138079013 -0.000434320587)
(1.86895366 -0.124335084 -0.000667363028)
(1.8962002 -0.103534601 -0.000853847718)
(4.39482848 0.00321223624 0.341361391)
(3.8583351 0.0081734671 0.526944121)
(3.27545276 0.0115361393 0.417269467)
(2.70071701 0.0133758103 0.263091261)
(2.3116661 0.0137270812 0.14716724)
(2.07849961 0.0126096542 0.0750061221)
(1.93153381 0.0100715797 0.0359463389)
(1.8373586 0.00617075107 0.0171283005)
(1.77804358 0.00095622597 0.0088310627)
(1.73987679 -0.00553116491 0.00550948795)
(1.71401451 -0.0132578212 0.00433516373)
(1.69574358 -0.0221974483 0.00393651804)
(1.68263548 -0.032327966 0.00372512635)
(1.67342541 -0.0436247064 0.00349884637)
(1.66751297 -0.0560501773 0.00321380406)
(1.66469574 -0.0695398302 0.00287918968)
(1.66501197 -0.0839820575 0.00251634709)
(1.66865614 -0.0991910287 0.00214397375)
(1.67593109 -0.114871697 0.00177410722)
(1.6872074 -0.130577257 0.0014125634)
(1.70287227 -0.14566157 0.00106060987)
(1.72325514 -0.159233105 0.000716642961)
(1.74851946 -0.170122865 0.000377723652)
(1.77851555 -0.176887262 4.13446288e-05)
(1.81259946 -0.177876209 -0.000292030823)
(1.84944475 -0.171404379 -0.000615730142)
(1.88690274 -0.156058343 -0.000913342944)
(1.92203479 -0.131148775 -0.00115747649)
(4.39474904 0.00231172277 0.341394334)
(3.85784486 0.00585586744 0.527040252)
(3.27422769 0.00815504643 0.417396057)
(2.69852804 0.00920639946 0.263211313)
(2.30842033 0.0089865275 0.147271679)
(2.07415513 0.00747116633 0.0751016266)
(1.92605847 0.00466847151 0.0360388252)
(1.8307324 0.00059547512 0.0172186292)
(1.77025221 -0.00474185317 0.00891849014)
(1.7309068 -0.0113480499 0.00559417783)
(1.70385295 -0.0192373636 0.00441739604)
(1.68437791 -0.0284346468 0.00401605204)
(1.67005581 -0.0389733417 0.00380186683)
(1.65963097 -0.0508894503 0.00357287247)
(1.65252364 -0.0642121238 0.00328508127)
(1.64856978 -0.0789492912 0.0029473448)
(1.64787183 -0.0950656678 0.00258050681)
(1.65072405 -0.112450496 0.00220263785)
(1.65757497 -0.130872468 0.00182500659)
(1.66899626 -0.149919904 0.00145242565)
(1.68563686 -0.168926487 0.00108478875)
(1.70814362 -0.186887296 0.000718538488)
(1.73702807 -0.202378618 0.000348043495)
(1.77246216 -0.213509537 -3.24950966e-05)
(1.81399406 -0.217952504 -0.000425586228)
(1.86020404 -0.213125923 -0.000825426921)
(1.90838172 -0.196611105 -0.00120797242)
(1.9544049 -0.166882849 -0.00152655783)
(4.39467767 0.00156416298 0.34142453)
(3.85740215 0.00393258224 0.52712735)
(3.27311592 0.0053499859 0.41751009)
(2.69653303 0.00574835149 0.263319255)
(2.30544675 0.00505747084 0.147365474)
(2.07014678 0.00321836296 0.0751872123)
(1.92096132 0.0002060162 0.036121105)
(1.82449869 -0.00399693877 0.0172988027)
(1.76283611 -0.00942024068 0.00899692737)
(1.7222582 -0.0161084699 0.00567117331)
(1.69391544 -0.0241213787 0.00449261053)
(1.67308859 -0.0335353296 0.00408919111)
(1.65734683 -0.0444427237 0.00387295495)
(1.64543483 -0.056948296 0.00364205692)
(1.63678394 -0.0711620235 0.00335235108)
(1.6312597 -0.0871864735 0.00301232373)
(1.62902331 -0.105095012 0.00264230309)
(1.63047105 -0.124896545 0.00225972115)
(1.6362142 -0.146481605 0.00187504941)
(1.64706797 -0.169544086 0.00149209029)
(1.66402449 -0.193473838 0.00110939062)
(1.68818273 -0.217219118 0.00072137581)
(1.72060235 -0.239128606 0.000319322175)
(1.76204078 -0.256803272 -0.000107112132)
(1.81252893 -0.267023343 -0.00056646104)
(1.87079071 -0.265881744 -0.00105812911)
(1.93354751 -0.249283629 -0.0015486134)
(1.99503196 -0.214097872 -0.00196211658)
(4.39461335 0.000956055439 0.341452532)
(3.85700061 0.00236996167 0.527206928)
(3.27210186 0.00307527562 0.417613439)
(2.69470577 0.0029523511 0.263416701)
(2.30271077 0.00189582575 0.147449703)
(2.06643417 -0.000180125636 0.0752629982)
(1.91619953 -0.00332818987 0.0361936752)
(1.81861831 -0.0075923028 0.0173704959)
(1.75576428 -0.013031233 0.00906809307)
(1.7139096 -0.0197252444 0.00574139022)
(1.68419047 -0.0277763126 0.00456143473)
(1.66187214 -0.0373107026 0.0041563683)
(1.64450728 -0.0484813537 0.00393851109)
(1.63082656 -0.0614679677 0.00370609174)
(1.62025538 -0.0764742768 0.00341475394)
(1.61266981 -0.0937200555 0.003072545)
(1.60827103 -0.113423458 0.00269917133)
(1.60754361 -0.135767582 0.00231128218)
(1.61126173 -0.16084284 0.00191844837)
(1.62051248 -0.188553872 0.0015235178)
(1.63670957 -0.218477367 0.00112399342)
(1.66156325 -0.249657716 0.000713106259)
(1.69695444 -0.280335299 0.000280642584)
(1.74463454 -0.307624654 -0.000186252176)
(1.80564169 -0.327214693 -0.000700280909)
(1.87939138 -0.333290339 -0.00127032891)
(1.96226153 -0.318944105 -0.00185838623)
(2.04637237 -0.277938821 -0.00238714516)
(4.39455579 0.000474812253 0.341478877)
(3.85663763 0.00113760979 0.527280049)
(3.27117826 0.0012898976 0.417707163)
(2.69303455 0.000772907009 0.263504307)
(2.30019764 -0.000541613334 0.147524174)
(2.063002 -0.00275902463 0.0753293144)
(1.91176313 -0.0059525011 0.0362581405)
(1.81309191 -0.010185148 0.0174352784)
(1.74905085 -0.0155396317 0.00913270937)
(1.70589178 -0.0221262805 0.00580527522)
(1.67472822 -0.0300836539 0.00462412692)
(1.65079851 -0.0395837281 0.00421756519)
(1.63162373 -0.0508382241 0.00399813896)
(1.61590066 -0.064103956 0.00376407236)
(1.60302322 -0.0796869744 0.00347065803)
(1.59284641 -0.0979431836 0.0031252744)
(1.58557451 -0.119270703 0.00274666071)
(1.58174186 -0.144086616 0.002350224)
(1.58225421 -0.172776525 0.0019441211)
(1.5884639 -0.205599049 0.00152986197)
(1.60225572 -0.242519349 0.00110408831)
(1.6261074 -0.282937771 0.000660483556)
(1.66305543 -0.325276224 0.000191540494)
(1.71643822 -0.366396618 -0.000308541533)
(1.7892368 -0.400914713 -0.00083738234)
(1.88273641 -0.420512301 -0.00138951639)
(1.99387345 -0.413757941 -0.00188003742)
(2.11262528 -0.36818403 -0.00234711048)
(4.39450594 0.000109287971 0.341504816)
(3.85631498 0.000206784881 0.527348163)
(3.27034506 -4.68263744e-05 0.417791786)
(2.69151784 -0.000836546348 0.263582088)
(2.29790779 -0.00230185529 0.147589394)
(2.05985752 -0.00455922807 0.0753878793)
(1.90767103 -0.00769459557 0.0363160214)
(1.80795356 -0.011784814 0.017493736)
(1.74274982 -0.0169302533 0.0091910715)
(1.69828466 -0.0232634084 0.00586293962)
(1.66563984 -0.0309513522 0.00468057738)
(1.64001421 -0.0402040034 0.00427240416)
(1.61887963 -0.0512849483 0.00405110245)
(1.60087465 -0.0645233734 0.00381471632)
(1.58532816 -0.0803275858 0.00351789022)
(1.57202887 -0.0991986335 0.00316684244)
(1.56112532 -0.121740131 0.00277856111)
(1.55312933 -0.148657194 0.00236604083)
(1.54899776 -0.180731449 0.00193444776)
(1.55027618 -0.218748715 0.00148218327)
(1.55929368 -0.263339489 0.00100390244)
(1.57938354 -0.314668446 0.000494823286)
(1.61505915 -0.371878254 -4.41800051e-05)
(1.67199782 -0.432200757 -0.000596909133)
(1.75657229 -0.489671617 -0.0011305815)
(1.87432211 -0.533307525 -0.00160559508)
(2.02572901 -0.545632206 -0.00178159063)
(2.20172336 -0.502284634 -0.00211380153)
(4.39446381 -0.000150138015 0.341530152)
(3.85603379 -0.000451364414 0.527410936)
(3.26960527 -0.000978542121 0.417867242)
(2.69016264 -0.00192661933 0.263650624)
(2.29585543 -0.00343728936 0.147646919)
(2.05702613 -0.0056303616 0.0754399673)
(1.90396374 -0.0085971136 0.0363677496)
(1.80326403 -0.012422157 0.0175459686)
(1.73694942 -0.0172156464 0.00924310907)
(1.69121204 -0.0231227177 0.00591416201)
(1.65709352 -0.030328114 0.00473041723)
(1.62974096 -0.0390674143 0.00432033445)
(1.60655917 -0.049642394 0.00409655987)
(1.58610197 -0.0624401319 0.00385667068)
(1.56759425 -0.077957537 0.00355417548)
(1.55070161 -0.0968316393 0.00319327584)
(1.5354358 -0.119874344 0.00278772181)
(1.52217411 -0.148107748 0.00234561789)
(1.5117781 -0.182790051 0.00186528427)
(1.5058126 -0.225409184 0.00133669628)
(1.50688225 -0.277595933 0.00074678219)
(1.51909695 -0.340860597 9.06900737e-05)
(1.54863843 -0.415971601 -0.000607257609)
(1.60431353 -0.501791794 -0.00127328742)
(1.69785725 -0.593038684 -0.00182310212)
(1.84277573 -0.676462347 -0.00220791761)
(2.05061348 -0.727023676 -0.00241196896)
(2.32556562 -0.69517522 -0.0047437176)
(4.39442791 -0.000315170981 0.341552702)
(3.85579187 -0.000868776191 0.527465841)
(3.26896334 -0.00155184292 0.417932699)
(2.68898308 -0.00255278142 0.263710162)
(2.29406413 -0.00400893544 0.147697053)
(2.05454436 -0.00603590518 0.0754855598)
(1.90069659 -0.00872280168 0.0364130721)
(1.79910416 -0.0121549141 0.0175916434)
(1.73176433 -0.0164434944 0.00928843885)
(1.68483291 -0.0217353056 0.00595851919)
(1.6493053 -0.0282190736 0.00477318217)
(1.62026732 -0.0361389967 0.00436081627)
(1.59504153 -0.045813785 0.00413381107)
(1.57207285 -0.0576621244 0.0038889072)
(1.55044343 -0.0722378165 0.00357781678)
(1.52963433 -0.0902776728 0.00320147882)
(1.50942411 -0.112765411 0.00276804232)
(1.4899071 -0.141014873 0.00227630026)
(1.47162751 -0.176773571 0.0017096707)
(1.45585362 -0.222339207 0.00103568807)
(1.44505619 -0.280658507 0.00021156618)
(1.44369237 -0.355310019 -0.000793610906)
(1.45942473 -0.450229647 -0.00194858338)
(1.50488207 -0.56867229 -0.0030955206)
(1.60002608 -0.710365501 -0.0039885376)
(1.77229253 -0.864808732 -0.00413999331)
(2.0608449 -0.997760176 -0.00426451509)