/*--------------------------------*- C++ -*----------------------------------*\
| =========                 |                                                 |
| \\      /  F ield         | foam-extend: Open Source CFD                    |
|  \\    /   O peration     | Version:     4.1                                |
|   \\  /    A nd           | Web:         http://www.foam-extend.org         |
|    \\/     M anipulation  |                                                 |
\*---------------------------------------------------------------------------*/
FoamFile
{
    version     2.0;
    format      ascii;
    class       volVectorField;
    location    "0.5";
    object      U_0;
}
// * * * * * * * * * * * * * * * * * * * * * * * * * * * * * * * * * * * * * //

dimensions      [0 1 -1 0 0 0 0];

internalField   nonuniform List<vector> 
35840
(
(3.94086022 0.268528679 0.261844402)
(3.2079532 0.371831965 0.357379765)
(2.43829533 0.266507467 0.249860583)
(1.72034619 0.156945668 0.141978402)
(1.29366642 0.0888177801 0.0772230626)
(1.05217885 0.0517258722 0.0439390165)
(0.893419537 0.0312063109 0.0270969502)
(0.785206639 0.0189948703 0.0180815588)
(0.711680296 0.0115233341 0.0131442842)
(0.660026076 0.00694807747 0.0104217573)
(0.622038157 0.00409347012 0.00881351278)
(0.59305108 0.00226109429 0.00773485956)
(0.570280548 0.00106069293 0.0069144759)
(0.551970124 0.00026466379 0.00623051785)
(0.536985988 -0.000266301903 0.00562828171)
(0.524572145 -0.000618480667 0.00508419167)
(0.514198854 -0.000845803181 0.00458817691)
(0.50547291 -0.000983429107 0.00413480009)
(0.498095775 -0.00105471774 0.0037202491)
(0.491826793 -0.00107469219 0.00334133569)
(0.486466303 -0.00105353705 0.0029950344)
(0.481844902 -0.000998773437 0.00267861511)
(0.477816099 -0.00091633986 0.00238979873)
(0.474251718 -0.000811186754 0.00212675503)
(0.471038823 -0.000687747005 0.00188807817)
(0.468077824 -0.0005502598 0.001672741)
(0.465281393 -0.000402939303 0.00148002558)
(0.462573974 -0.000250009276 0.00130943777)
(4.52124941 0.409953752 0.331399925)
(4.20224542 0.638138174 0.509000201)
(3.63676155 0.543498311 0.407274622)
(2.94289091 0.39129343 0.261505192)
(2.41564549 0.267507308 0.152218378)
(2.06112021 0.181550559 0.085970087)
(1.80858808 0.124044865 0.0502549607)
(1.62432148 0.0850815816 0.0317460197)
(1.490251 0.058479984 0.0220744982)
(1.39081457 0.0403439135 0.0169178536)
(1.31477377 0.0278984881 0.0140005149)
(1.25510273 0.019232847 0.0121432939)
(1.20730316 0.0131001071 0.0107975504)
(1.16834506 0.0086899985 0.00972341549)
(1.13615057 0.00547203572 0.0088121425)
(1.10926687 0.00309919975 0.00801159033)
(1.08664293 0.0013437574 0.00729507482)
(1.06749206 5.37444676e-05 0.00664707132)
(1.05119787 -0.000874043816 0.00605663755)
(1.03726618 -0.00151085851 0.00551483213)
(1.02529192 -0.00190754276 0.00501417698)
(1.01493445 -0.00210176049 0.00454875568)
(1.00589992 -0.0021228793 0.00411413145)
(0.997931788 -0.0019953145 0.00370707299)
(0.990804041 -0.00174070852 0.00332538508)
(0.984316793 -0.00137939289 0.00296778213)
(0.978293563 -0.000931287924 0.00263375146)
(0.972579859 -0.00041633378 0.00232338628)
(4.44213351 0.221362147 0.337951963)
(4.08278413 0.436518028 0.518819199)
(3.65713713 0.463119151 0.418089433)
(3.13712293 0.408858787 0.275889193)
(2.71978365 0.331894426 0.166458096)
(2.42182111 0.257605838 0.0961050494)
(2.19810211 0.195678072 0.056475357)
(2.02635652 0.147057429 0.0358943333)
(1.89485648 0.109804361 0.0253556705)
(1.79244449 0.0816626271 0.0198180408)
(1.71056901 0.0605582098 0.0166866695)
(1.64380428 0.0447394808 0.0146472611)
(1.58860438 0.0328295402 0.0131018257)
(1.5424643 0.0237923984 0.0118115613)
(1.50356441 0.0168719242 0.0106843527)
(1.4705576 0.0115301435 0.00968192826)
(1.4424154 0.00739036752 0.00878532663)
(1.41832834 0.00419028785 0.0079814222)
(1.39764233 0.00174642738 0.00725809772)
(1.37981836 -7.17429873e-05 0.00660352281)
(1.36439931 -0.00135910828 0.00600661463)
(1.35099382 -0.00218708634 0.00545760481)
(1.3392609 -0.00261195003 0.00494845486)
(1.32889913 -0.00268097287 0.00447292214)
(1.31963992 -0.00243672589 0.00402643035)
(1.31124308 -0.00191994773 0.00360589927)
(1.30349408 -0.00117136236 0.00320954281)
(1.29620272 -0.000232660842 0.00283663057)
(4.41370729 0.123370638 0.33792919)
(3.97527204 0.285997518 0.516843409)
(3.52614318 0.346945302 0.410945034)
(3.04826662 0.341767704 0.267056202)
(2.69650452 0.304735287 0.158688443)
(2.46049562 0.25643089 0.0893122133)
(2.28810489 0.208547723 0.0503494109)
(2.15601339 0.166268559 0.0306489768)
(2.05357005 0.130872629 0.0211772637)
(1.97170614 0.10203885 0.0166836889)
(1.90393369 0.078918384 0.0144664031)
(1.8465565 0.0605347326 0.0131680155)
(1.79741239 0.0459605411 0.0121791262)
(1.75504591 0.0343955043 0.0112799535)
(1.71839372 0.0251905487 0.0104138042)
(1.68663456 0.017842889 0.00957847394)
(1.65909672 0.0119756325 0.0087849565)
(1.63520841 0.0073121687 0.00804273852)
(1.61447277 0.00365150766 0.00735564853)
(1.59645287 0.000847531991 0.00672238946)
(1.58076023 -0.00120762537 0.0061383843)
(1.5670466 -0.00259641838 0.00559784914)
(1.5549974 -0.00338494578 0.0050947974)
(1.54432649 -0.00363006755 0.00462377784)
(1.53477269 -0.00338483324 0.00418031801)
(1.5260976 -0.00270224776 0.00376109431)
(1.5180846 -0.0016376899 0.00336393139)
(1.51053873 -0.000250202362 0.00298769519)
(4.40562828 0.0838882205 0.33853024)
(3.92709406 0.205875257 0.5186673)
(3.43458381 0.264641677 0.409525737)
(2.94274015 0.274648766 0.261033793)
(2.60543274 0.257680325 0.15031132)
(2.39688241 0.227982366 0.0806000301)
(2.255466 0.194230179 0.0421474966)
(2.15329759 0.161504136 0.0232701276)
(2.07740245 0.132085551 0.0147413628)
(2.01793339 0.106625146 0.0111883909)
(1.96848584 0.0850519351 0.00984682675)
(1.92580833 0.0670052104 0.00933231148)
(1.88831635 0.0520225966 0.00901957485)
(1.85514402 0.039634916 0.00868447196)
(1.82575928 0.0294160583 0.00827797412)
(1.79978455 0.0210051775 0.00781209713)
(1.77690103 0.0141113105 0.0073137577)
(1.75680884 0.00850798965 0.00680762602)
(1.73921641 0.00402315217 0.00631082931)
(1.72383946 0.000527817339 0.00583291375)
(1.71040286 -0.00207548419 0.00537782644)
(1.69864215 -0.00386247003 0.00494636516)
(1.68830348 -0.00489518137 0.00453733215)
(1.67914477 -0.00522908825 0.00414863063)
(1.67093633 -0.00491874945 0.00377807229)
(1.66346198 -0.00402199979 0.00342382933)
(1.65652051 -0.00260277171 0.00308465389)
(1.64992763 -0.000732587117 0.00275995186)
(4.40178192 0.0613581219 0.339164562)
(3.90241895 0.153225103 0.520513208)
(3.38074691 0.204412842 0.410098237)
(2.86922271 0.221085645 0.258747422)
(2.52751678 0.215756687 0.145978992)
(2.32478533 0.198096698 0.0755290509)
(2.19490608 0.174656884 0.0370215439)
(2.10725013 0.149819699 0.0183395023)
(2.04673981 0.12602306 0.0101163456)
(2.00217304 0.104334572 0.00691312072)
(1.96646016 0.0850988974 0.00592975519)
(1.93605962 0.068319125 0.0057717287)
(1.9093236 0.0538387121 0.00580769364)
(1.88546152 0.0414356262 0.00580465825)
(1.86409132 0.0308751655 0.00570608368)
(1.84501343 0.0219385696 0.00552001808)
(1.82808623 0.0144366005 0.00527243475)
(1.81317078 0.00821389348 0.00498917197)
(1.80011389 0.00314774864 0.00468985663)
(1.78874504 -0.000856380235 0.00438706967)
(1.77888239 -0.00387147368 0.00408817871)
(1.7703327 -0.00595513183 0.00379705821)
(1.76289762 -0.00715635494 0.00351510057)
(1.75637661 -0.00752200318 0.0032423421)
(1.75057034 -0.00710227267 0.0029782588)
(1.7452842 -0.00595509369 0.00272223429)
(1.74033208 -0.00414926814 0.00247383295)
(1.73554037 -0.00176613025 0.00223294628)
(4.39956857 0.0466862784 0.339653339)
(3.88830616 0.117718751 0.521953191)
(3.34832377 0.161234841 0.411268596)
(2.82104458 0.180137236 0.258565221)
(2.47123178 0.181409729 0.144562669)
(2.26669541 0.171527982 0.0735001102)
(2.13926081 0.155434666 0.0347868585)
(2.05694382 0.136698272 0.0160489279)
(2.0034609 0.117561426 0.00782502871)
(1.96667788 0.0992315305 0.00464282814)
(1.93892144 0.0822832982 0.00368827342)
(1.91629575 0.0669445192 0.00357056809)
(1.89693791 0.0532576618 0.00366541405)
(1.87994248 0.0411710482 0.00374065947)
(1.86488573 0.0305915209 0.00373596463)
(1.85157496 0.0214145651 0.00365440674)
(1.83990395 0.0135409633 0.00351734548)
(1.82978324 0.00688517136 0.00334686797)
(1.82111317 0.00137840835 0.00315987374)
(1.81377492 -0.00303244773 0.00296729421)
(1.80763174 -0.0063877919 0.00277576543)
(1.80252817 -0.00871930337 0.00258873213)
(1.79829511 -0.0100560034 0.0024074673)
(1.79475315 -0.0104300344 0.00223206775)
(1.79171673 -0.00988208569 0.00206209695)
(1.78899888 -0.00846613805 0.00189696108)
(1.78641658 -0.00625302484 0.00173613349)
(1.7837966 -0.00333233623 0.00157928218)
(4.3982178 0.0366439796 0.34004284)
(3.87961973 0.092969574 0.523109093)
(3.32763291 0.129543755 0.412495096)
(2.78862846 0.148156599 0.259132471)
(2.43116383 0.152908838 0.144407698)
(2.22292746 0.148077616 0.0729501896)
(2.09467772 0.137270324 0.034102618)
(2.01366676 0.123263056 0.0153185609)
(1.96291828 0.107963776 0.00705849105)
(1.92972736 0.0925529852 0.0038294249)
(1.90604056 0.0777091907 0.0028135221)
(1.88771634 0.0637966863 0.00262806167)
(1.87272429 0.0509926518 0.00266095039)
(1.86004557 0.0393676967 0.0026881937)
(1.84918487 0.0289350661 0.00265243532)
(1.8399096 0.0196804505 0.00255662243)
(1.83209649 0.0115800149 0.00242046342)
(1.82565434 0.0046108745 0.00226374825)
(1.8204901 -0.00124375619 0.00210095107)
(1.8164979 -0.00599358908 0.00194111858)
(1.81355081 -0.00964195379 0.00178931785)
(1.81150285 -0.0121894914 0.00164757431)
(1.81018996 -0.013639507 0.00151609426)
(1.80943278 -0.0140037171 0.00139415514)
(1.80904073 -0.0133082072 0.00128061963)
(1.80881739 -0.0115989484 0.00117424529)
(1.80856716 -0.0089461247 0.00107383945)
(1.80810296 -0.00544653371 0.000978331372)
(4.3973242 0.0293671444 0.340349445)
(3.87389925 0.0747831153 0.524004966)
(3.31375419 0.105388276 0.413535404)
(2.76613317 0.122585814 0.259832261)
(2.40225069 0.128950597 0.144687956)
(2.19010919 0.127294884 0.0729968062)
(2.0599533 0.12019366 0.0340830377)
(1.97859048 0.109755378 0.0152888603)
(1.92860922 0.0975355831 0.00701592371)
(1.89692533 0.0845971211 0.00375566751)
(1.87522085 0.0716292901 0.00268765941)
(1.85918088 0.0590609905 0.00243444131)
(1.8466577 0.0471514309 0.00239352959)
(1.83655157 0.0360548828 0.00234928484)
(1.82831238 0.0258629854 0.00224939091)
(1.82167218 0.0166319986 0.00209922408)
(1.81648661 0.00840058973 0.00191930011)
(1.81265322 0.00120109324 0.00172921185)
(1.81007447 -0.00493454727 0.00154282512)
(1.80864148 -0.00997202993 0.00136855371)
(1.80822559 -0.0138749927 0.00121056568)
(1.8086764 -0.0166087736 0.00107007925)
(1.80982127 -0.0181455787 0.000946642211)
(1.81146714 -0.0184709619 0.000838954777)
(1.81340442 -0.0175910512 0.000745318023)
(1.81541287 -0.0155395543 0.000663941676)
(1.81726991 -0.0123834045 0.000593033064)
(1.81876053 -0.00822602959 0.000530787889)
(4.39669981 0.0238498643 0.340586737)
(3.86994202 0.0608793834 0.524691119)
(3.30407226 0.0864609436 0.414369676)
(2.75007092 0.101801594 0.260483849)
(2.38097968 0.108632229 0.145087557)
(2.16522727 0.108828365 0.0732509722)
(2.03286045 0.104214909 0.0342985836)
(1.95044809 0.0963714464 0.015505329)
(1.90030436 0.0865329609 0.00723238112)
(1.86908605 0.0756088808 0.0039588422)
(1.84828152 0.0642426199 0.00286123637)
(1.83344223 0.0528750129 0.00256423987)
(1.82232905 0.0418046806 0.00247094372)
(1.81378024 0.0312366892 0.00237133327)
(1.80720455 0.0213166351 0.00221703078)
(1.8023081 0.0121539341 0.00201576827)
(1.79893149 0.00383807442 0.00178934965)
(1.79696427 -0.00355060413 0.00155796561)
(1.79630541 -0.00993439426 0.00133589847)
(1.79684286 -0.0152349243 0.00113166856)
(1.79844401 -0.0193738709 0.00094928011)
(1.80095032 -0.0222766653 0.000789848213)
(1.80417508 -0.023878499 0.000652883713)
(1.80790419 -0.0241323288 0.000537062243)
(1.81189956 -0.0230181068 0.00044059724)
(1.81590577 -0.0205521516 0.000361452533)
(1.81966005 -0.0167951369 0.000297534127)
(1.82290537 -0.0118571274 0.000246810861)
(4.39624722 0.0195222263 0.34076971)
(3.86709829 0.0499134766 0.5252184)
(3.29708405 0.0712641505 0.415028527)
(2.73828378 0.0846299199 0.261038739)
(2.36500453 0.0912462632 0.145482372)
(2.14607756 0.0923942728 0.0735494773)
(2.01150975 0.0893679167 0.0345697896)
(1.92776106 0.0833400692 0.0157771502)
(1.87698333 0.0752741964 0.00750586875)
(1.84566301 0.0659238707 0.00422607327)
(1.82515068 0.0558594425 0.00311176104)
(1.81089529 0.0455007172 0.00278840583)
(1.80058405 0.0351551663 0.00266210508)
(1.79300434 0.0250529608 0.00252609171)
(1.78753153 0.0153733396 0.00233435887)
(1.78385166 0.00626372171 0.0020960947)
(1.78179488 -0.00214628148 0.00183392826)
(1.78124718 -0.00973483458 0.00156869553)
(1.78210703 -0.0163811797 0.00131519007)
(1.7842628 -0.0219627905 0.00108205915)
(1.78757941 -0.02635633 0.000873490897)
(1.79189024 -0.0294418049 0.000690886595)
(1.79699274 -0.031110036 0.000533979975)
(1.80264702 -0.0312730036 0.000401599796)
(1.80857847 -0.0298761882 0.000292168424)
(1.81448501 -0.0269115949 0.00020391306)
(1.82004955 -0.0224295484 0.000134944275)
(1.8249573 -0.0165468652 8.32531001e-05)
(4.39590858 0.0160354152 0.34091119)
(3.86498601 0.0410414038 0.525626429)
(3.29188238 0.0588037346 0.415547264)
(2.72940425 0.0702361875 0.261494606)
(2.35275038 0.076257503 0.145831675)
(2.13108894 0.0777633558 0.0738327723)
(1.99445618 0.0756752554 0.0348322883)
(1.90927859 0.0708597392 0.0160376572)
(1.85762096 0.0640594849 0.00776566085)
(1.82586411 0.0558853332 0.0044804844)
(1.80526614 0.0468255409 0.00335445697)
(1.7912019 0.0372606003 0.00301348892)
(1.78130225 0.0274866387 0.00286541382)
(1.77431452 0.0177401277 0.00270530184)
(1.76958795 0.00821794191 0.00248841929)
(1.76679367 -0.000907327345 0.00222462954)
(1.76575595 -0.00947527015 0.00193704451)
(1.76636152 -0.0173281944 0.00164694669)
(1.76851315 -0.0243048223 0.00136921523)
(1.77210348 -0.0302377182 0.00111258936)
(1.77699836 -0.0349543122 0.000881418031)
(1.78302515 -0.0382819806 0.000677322915)
(1.78996478 -0.0400574143 0.000500330994)
(1.79754755 -0.0401401261 0.000349672573)
(1.80545399 -0.0384293515 0.000224214979)
(1.81332226 -0.0348826471 0.000122641921)
(1.82076335 -0.0295335763 4.34863733e-05)
(1.82738402 -0.0225049757 -1.49445688e-05)
(4.39564786 0.0131666433 0.341021428)
(3.8633698 0.0337187295 0.525945615)
(3.28789881 0.0484146964 0.415958157)
(2.7225425 0.0580286869 0.261865494)
(2.34314278 0.0632574904 0.146128669)
(2.11913719 0.0647378847 0.0740832124)
(1.9806156 0.063129592 0.0350665219)
(1.89401089 0.0590708595 0.0162680476)
(1.84134838 0.0531284999 0.0079930357)
(1.80894811 0.0457888922 0.00470191456)
(1.78801034 0.0374588456 0.00356601446)
(1.77386045 0.0284707538 0.00321159953)
(1.76408991 0.0190967665 0.00304762263)
(1.75741785 0.00956632324 0.0028702219)
(1.75317585 8.13922862e-05 0.00263527023)
(1.7510269 -0.00917094396 0.00235301677)
(1.75079588 -0.0180074715 0.00204690048)
(1.75237658 -0.0262398786 0.00173818599)
(1.75568226 -0.033668571 0.00144160372)
(1.76061621 -0.0400796437 0.00116587231)
(1.76705114 -0.0452458472 0.000915423593)
(1.77481278 -0.0489324955 0.000692048121)
(1.78366704 -0.0509090537 0.000496058851)
(1.7933113 -0.0509667231 0.00032710055)
(1.80337203 -0.0489415101 0.000184557909)
(1.81341139 -0.0447409399 6.77380666e-05)
(1.82294515 -0.0383709273 -2.41409534e-05)
(1.83147314 -0.0299575866 -9.21311238e-05)
(4.39544179 0.0107688094 0.341108414)
(3.86209874 0.0275831794 0.526198968)
(3.2847645 0.0396415639 0.416287496)
(2.7171049 0.0475815595 0.262168125)
(2.33543808 0.0519318208 0.146378012)
(2.10941369 0.053147594 0.0742988094)
(1.96917847 0.0517021982 0.0352695417)
(1.88119003 0.048063778 0.0164666319)
(1.82746261 0.0426601333 0.00818747312)
(1.79428515 0.035871613 0.00489016037)
(1.77282519 0.0280287039 0.00374547059)
(1.75837835 0.0194124767 0.00337998729)
(1.74851193 0.0102634285 0.00320342741)
(1.74192846 0.000794252692 0.00301252287)
(1.73795125 -0.0087980711 0.00276355721)
(1.73624405 -0.0183209935 0.0024671324)
(1.73664084 -0.027575968 0.00214662138)
(1.73905097 -0.0363494017 0.00182295595)
(1.74340759 -0.0444054963 0.00151066766)
(1.74963483 -0.0514820199 0.00121836338)
(1.75762216 -0.0572904731 0.000950455488)
(1.7672022 -0.0615222232 0.000708819386)
(1.77813091 -0.0638621635 0.000493979953)
(1.790072 -0.0640111042 0.000305959207)
(1.80258862 -0.0617170051 0.000144737965)
(1.81514702 -0.0568133322 1.04493087e-05)
(1.82713679 -0.0492600848 -9.6678829e-05)
(1.8379107 -0.0391798251 -0.000176641642)
(4.39527484 0.00874188537 0.341178241)
(3.86107274 0.0223868717 0.526403654)
(3.28223311 0.0321659276 0.41655561)
(2.71268699 0.038585657 0.262417547)
(2.32911499 0.0420397996 0.146587557)
(2.10133342 0.0428503836 0.0744832466)
(1.95954031 0.0413551338 0.0354443184)
(1.87022444 0.0378943974 0.0166372028)
(1.81540462 0.0327858997 0.00835369919)
(1.78135743 0.0263203346 0.00505046808)
(1.75923489 0.018758415 0.00389801163)
(1.74431774 0.0103294904 0.0035231784)
(1.73416143 0.00123741691 0.00333617531)
(1.72746229 -0.00832947576 0.00313423372)
(1.72354534 -0.0181876163 0.00287412825)
(1.72208485 -0.0281475277 0.00256642693)
(1.72293365 -0.0380032556 0.00223405981)
(1.72602805 -0.0475219928 0.00189762169)
(1.73133432 -0.0564347233 0.0015713965)
(1.73881207 -0.0644295109 0.00126378799)
(1.7483832 -0.0711493966 0.000979040343)
(1.75990193 -0.0761973796 0.000718955595)
(1.77312561 -0.0791512837 0.000484156335)
(1.7876882 -0.0795911878 0.000274986559)
(1.80308182 -0.0771409552 9.20814299e-05)
(1.81865339 -0.0715229249 -6.33576107e-05)
(1.83362517 -0.0626205677 -0.000189621389)
(1.84714596 -0.0505381569 -0.000284984491)
(4.39513637 0.00701618679 0.341235492)
(3.86022373 0.0179563342 0.526572386)
(3.28013637 0.025761433 0.416777875)
(2.70900834 0.0308148745 0.262626097)
(2.32380389 0.0333980206 0.146765182)
(2.09447074 0.0337309085 0.0746416803)
(1.95124962 0.0320499948 0.035595373)
(1.86066055 0.0285981576 0.0167846455)
(1.80473446 0.0236051135 0.00849711017)
(1.76974653 0.0172854495 0.00518854462)
(1.74684431 0.00983644253 0.00402932257)
(1.7313038 0.00143618372 0.00364645768)
(1.72067783 -0.00775196058 0.00345068506)
(1.71366577 -0.017570317 0.00323994287)
(1.70960352 -0.0278568176 0.00297107041)
(1.70818502 -0.0384343577 0.00265416846)
(1.70929327 -0.049098885 0.00231175354)
(1.71290539 -0.059606332 0.00196410792)
(1.71903774 -0.0696596492 0.00162515664)
(1.72770581 -0.0788976481 0.00130291715)
(1.73888694 -0.0868882458 0.00100128938)
(1.75248089 -0.0931297404 0.000721798618)
(1.76826732 -0.0970646872 0.000464947932)
(1.78586314 -0.0981114594 0.000231245658)
(1.80468656 -0.0957177979 2.19755425e-05)
(1.82393932 -0.0894377288 -0.000160309935)
(1.84262203 -0.0790268961 -0.000311724163)
(1.85959764 -0.0645416013 -0.000427760781)
(4.395019 0.00554216385 0.341283574)
(3.85950459 0.0141677924 0.526714525)
(3.27835739 0.0202646923 0.416965757)
(2.70587202 0.0241025505 0.262803406)
(2.31924072 0.025867224 0.146917658)
(2.08851527 0.0256979218 0.074779056)
(1.94396999 0.0237533166 0.0357271083)
(1.85215301 0.0202004477 0.016913444)
(1.79510981 0.0151975572 0.00862237306)
(1.75911965 0.00889387843 0.00530909821)
(1.73533161 0.00142840314 0.00414389601)
(1.71902302 -0.00707175117 0.00375415552)
(1.70775091 -0.0164868204 0.00355149278)
(1.70022457 -0.0266959878 0.00333405368)
(1.69579756 -0.0375677448 0.00305826521)
(1.69419237 -0.0489483225 0.00273383494)
(1.69533378 -0.0606473125 0.00238298375)
(1.69925545 -0.072420853 0.00202555109)
(1.7060447 -0.0839531701 0.00167494231)
(1.71579973 -0.0948383349 0.00133861739)
(1.72858601 -0.104565337 0.00101989497)
(1.74438536 -0.112511325 0.000719718352)
(1.76303589 -0.117950016 0.000438105538)
(1.78416527 -0.120084101 0.00017537999)
(1.807126 -0.11811093 -6.67003729e-05)
(1.83094967 -0.111328185 -0.000283971265)
(1.85434499 -0.0992776545 -0.000469401132)
(1.87576982 -0.081910154 -0.000614098718)
(4.39491755 0.00428390317 0.341324988)
(3.85888239 0.0109313064 0.526836901)
(3.27681428 0.0155559913 0.417127695)
(2.70313898 0.0183247679 0.262956767)
(2.31523662 0.0193418313 0.147050391)
(2.08324152 0.018680788 0.074899537)
(1.9374529 0.0164389838 0.0358432346)
(1.8444424 0.0127231518 0.0170272219)
(1.78626927 0.00763242738 0.00873303747)
(1.74921798 0.00125875589 0.0054154341)
(1.72444122 -0.00631337642 0.00424497455)
(1.70722112 -0.0150074178 0.00384996)
(1.69512241 -0.0247504366 0.0036422632)
(1.68686736 -0.0354657085 0.00341973492)
(1.68183192 -0.0470628668 0.00313855092)
(1.67977425 -0.0594247285 0.00280819286)
(1.68067194 -0.0723901411 0.00245046689)
(1.68463165 -0.085732268 0.00208466988)
(1.69183575 -0.0991326976 0.00172355963)
(1.70249904 -0.112152851 0.00137385226)
(1.71681957 -0.124205856 0.00103799943)
(1.73491527 -0.134534986 0.000715944143)
(1.75674162 -0.142208511 0.000406654559)
(1.78199053 -0.146145124 0.000109620416)
(1.80997958 -0.145187584 -0.000173439477)
(1.83955469 -0.138242267 -0.000436712526)
(1.8690448 -0.124492622 -0.00066895518)
(1.89633055 -0.103673708 -0.000854204215)
(4.39482836 0.00321482601 0.34136154)
(3.85833407 0.00818018806 0.526944433)
(3.2754498 0.0115460441 0.417269804)
(2.70071148 0.0133881835 0.263091558)
(2.3116577 0.013741386 0.147167492)
(2.07848798 0.0126254207 0.0750063648)
(1.9315185 0.0100883301 0.0359466001)
(1.8373392 0.00618797392 0.0171285843)
(1.77801962 0.000973357284 0.00883136328)
(1.73984776 -0.00551477648 0.00550979356)
(1.71397988 -0.0132429523 0.00433545756)
(1.69570282 -0.0221850365 0.00393678292)
(1.68258812 -0.032319154 0.00372534179)
(1.67337101 -0.04362089 0.00349898187)
(1.66745128 -0.0560530543 0.00321381645)
(1.66462672 -0.0695514416 0.00287902062)
(1.664936 -0.0840048143 0.00251592052)
(1.66857415 -0.0992277045 0.00214319589)
(1.67584483 -0.114925362 0.00177287029)
(1.68711969 -0.130651117 0.00141075585)
(1.70278733 -0.145758663 0.00105813704)
(1.72317882 -0.15935581 0.000713460762)
(1.74845938 -0.170272174 0.000373885881)
(1.77848091 -0.177061814 3.70582585e-05)
(1.81260035 -0.178071188 -0.000296357307)
(1.84949079 -0.171610507 -0.000619472413)
(1.88700086 -0.156261453 -0.000915708745)
(1.92218645 -0.131330685 -0.00115764854)
(4.39474892 0.00231471872 0.341394493)
(3.8578438 0.00586364628 0.527040582)
(3.27422459 0.00816654266 0.417396409)
(2.69852222 0.00922083891 0.26321162)
(2.30841148 0.00900335685 0.147271938)
(2.07414283 0.00748991997 0.0751018746)
(1.92604221 0.00468868478 0.0360390946)
(1.83071169 0.000616668585 0.0172189263)
(1.77022648 -0.00472021408 0.00891880029)
(1.7308754 -0.0113265959 0.00559448705)
(1.70381517 -0.0192168549 0.0044176876)
(1.68433301 -0.0284160215 0.00401630724)
(1.67000301 -0.0389577765 0.00380205944)
(1.65956952 -0.0508784302 0.00357296297)
(1.65245288 -0.0642075197 0.00328501222)
(1.64848923 -0.0789534417 0.00294703566)
(1.64778137 -0.0950814558 0.00257984872)
(1.65062412 -0.112481402 0.00220149056)
(1.65746691 -0.130922569 0.0018231997)
(1.66888271 -0.149993766 0.00144976965)
(1.68552228 -0.169028885 0.00108110277)
(1.70803476 -0.187022656 0.000713702623)
(1.73693445 -0.202550077 0.000342081513)
(1.77239613 -0.213717541 -3.93063704e-05)
(1.81397025 -0.218192966 -0.000432600987)
(1.86023763 -0.213388215 -0.000831561389)
(1.90848513 -0.196876562 -0.00121175594)
(1.95458309 -0.167125211 -0.00152640019)
(4.39467755 0.0015675844 0.341424697)
(3.85740106 0.00394146407 0.527127691)
(3.27311273 0.00536314395 0.417510449)
(2.69652703 0.00576495844 0.263319568)
(2.30543761 0.00507696852 0.147365736)
(2.07013401 0.00324029411 0.075187466)
(1.92094439 0.000229960938 0.0361213896)
(1.82447703 -0.00397140385 0.0172991107)
(1.76280903 -0.00939360267 0.00899723974)
(1.7222249 -0.0160813022 0.00567147854)
(1.69387503 -0.024094378 0.00449289238)
(1.67304008 -0.0335093793 0.00408942669)
(1.65728913 -0.0444189691 0.00387311103)
(1.64536677 -0.0569282363 0.00364208298)
(1.63670436 -0.0711476236 0.00335217147)
(1.6311675 -0.0871802955 0.0030118285)
(1.62891763 -0.105100361 0.00264133793)
(1.63035156 -0.124917614 0.0022580778)
(1.63608143 -0.146523589 0.00187246072)
(1.64692391 -0.169613206 0.00148823748)
(1.66387335 -0.193577165 0.00110393523)
(1.68803183 -0.217364058 0.000714035466)
(1.72046308 -0.239321803 0.000310008707)
(1.76192933 -0.257048712 -0.000118083189)
(1.81246619 -0.267319473 -0.000578102914)
(1.87080049 -0.26621772 -0.00106856949)
(1.93365188 -0.249635574 -0.00155508733)
(1.99524343 -0.214427615 -0.00196147226)
(4.39461323 0.000959923574 0.3414527)
(3.85699952 0.0023799733 0.527207268)
(3.27209865 0.00309013301 0.417613797)
(2.69469972 0.00297118035 0.263417016)
(2.30270152 0.00191807767 0.147449968)
(2.06642122 -0.000154879982 0.0752632697)
(1.91618231 -0.00330029856 0.0361939724)
(1.81859616 -0.00756212797 0.0173708051)
(1.75573641 -0.0129991811 0.00906840137)
(1.71387507 -0.0196917841 0.00574168512)
(1.68414821 -0.0277420228 0.00456169837)
(1.66182089 -0.0372763418 0.00415657392)
(1.64444561 -0.0484479463 0.0039386179)
(1.63075285 -0.0614369168 0.00370603614)
(1.62016784 -0.0764475106 0.00341443784)
(1.61256657 -0.0937002136 0.00307182112)
(1.60815025 -0.113414122 0.00269782483)
(1.60740375 -0.135773548 0.00230900976)
(1.61110199 -0.160870409 0.00191483889)
(1.62033349 -0.188611101 0.0015180448)
(1.63651445 -0.218574166 0.00111604113)
(1.66135902 -0.249805566 0.000702064254)
(1.69675385 -0.280546239 0.000266114739)
(1.74445793 -0.307909022 -0.000204066057)
(1.80551823 -0.327577017 -0.000720005061)
(1.87935811 -0.333722924 -0.00128879882)
(1.96235765 -0.319418671 -0.00187029886)
(2.04662701 -0.278399984 -0.00238606241)
(4.39455564 0.000479148466 0.34147902)
(3.85663653 0.00114875367 0.527280357)
(3.27117508 0.00130643543 0.417707501)
(2.69302859 0.000793975453 0.263504629)
(2.30018852 -0.000516572288 0.147524455)
(2.06298921 -0.00273038544 0.0753296031)
(1.91174605 -0.00592054165 0.0362584386)
(1.81306982 -0.0101501438 0.0174355816)
(1.74902287 -0.015501867 0.00913300652)
(1.70585688 -0.0220860733 0.00580555222)
(1.67468514 -0.0300414045 0.00462436421)
(1.65074576 -0.039539987 0.00421773233)
(1.63155952 -0.0507937833 0.00399818721)
(1.61582287 -0.0640599756 0.00376392355)
(1.6029294 -0.0796451562 0.00347018836)
(1.59273374 -0.097906009 0.00312429211)
(1.58543992 -0.119241754 0.00274487532)
(1.58158219 -0.144070996 0.00234720634)
(1.58206664 -0.17278139 0.00193925651)
(1.58824672 -0.205634209 0.00152230765)
(1.6020096 -0.242597848 0.00109276483)
(1.62583745 -0.283076202 0.000644154617)
(1.66277414 -0.325494275 0.00016907779)
(1.7161693 -0.366715021 -0.000337548342)
(1.78901926 -0.401350287 -0.000871544961)
(1.88262706 -0.42106829 -0.00142413132)
(1.99394242 -0.414407976 -0.00190543652)
(2.11294037 -0.368851076 -0.00234986669)
(4.39450574 0.000114061368 0.341504894)
(3.8563138 0.000219019508 0.527348394)
(3.27034198 -2.86587085e-05 0.417792087)
(2.69151215 -0.000813274622 0.2635824)
(2.29789906 -0.00227405535 0.147589682)
(2.05984524 -0.0045272185 0.0753881644)
(1.90765458 -0.007658571 0.0363163106)
(1.80793217 -0.0117449288 0.0174940246)
(1.74272257 -0.0168866376 0.00919134891)
(1.69825044 -0.0232161872 0.00586319121)
(1.66559725 -0.0309006843 0.00468078198)
(1.63996155 -0.0401501419 0.00427252762)
(1.61881481 -0.0512283265 0.0040510884)
(1.60079509 -0.0644647309 0.00381447211)
(1.58523071 -0.0802681519 0.00351726552)
(1.57190971 -0.0991403973 0.00316559717)
(1.56097994 -0.121686235 0.00277631774)
(1.55295255 -0.148612503 0.00236221562)
(1.54878402 -0.180703344 0.0019281576)
(1.55002017 -0.218748164 0.00147213332)
(1.55899175 -0.263382373 0.000988282812)
(1.57903621 -0.314776976 0.000471286202)
(1.6146754 -0.372081944 -7.8296192e-05)
(1.67160169 -0.432535829 -0.000643829131)
(1.75621212 -0.49017648 -0.00119048521)
(1.87408128 -0.534010165 -0.00167372371)
(2.02573156 -0.546523633 -0.00184385049)
(2.2021253 -0.503261882 -0.00214402174)
(4.39446359 -0.000145002118 0.341530173)
(3.85603257 -0.000438118647 0.527411095)
(3.26960238 -0.000958805926 0.417867503)
(2.69015741 -0.00190127325 0.263650902)
(2.29584735 -0.00340687472 0.147647188)
(2.05701474 -0.00559513101 0.0754402347)
(1.90394844 -0.00855716303 0.0363680186)
(1.80324406 -0.0123775056 0.0175462337)
(1.73692384 -0.017166248 0.00924335942)
(1.6911797 -0.0230684672 0.00591438246)
(1.65705296 -0.0302688729 0.00473058531)
(1.62969035 -0.0390030538 0.00432041322)
(1.60649619 -0.0495728617 0.004096487)
(1.58602368 -0.062365556 0.00385634161)
(1.56749689 -0.0778783907 0.00355341657)
(1.55058042 -0.0967490018 0.00319180141)
(1.53528479 -0.119790314 0.00278506587)
(1.52198587 -0.1480261 0.00234102676)
(1.51154369 -0.182717249 0.0018575533)
(1.50552187 -0.225355937 0.00132393417)
(1.50652486 -0.277579485 0.000726101186)
(1.51866492 -0.340907919 5.7872168e-05)
(1.54813159 -0.416123301 -0.000657930585)
(1.60374974 -0.502106024 -0.00134875531)
(1.69729 -0.593591512 -0.00192998198)
(1.84232009 -0.677336444 -0.0023482233)
(2.05048012 -0.728264197 -0.00257266902)
(2.32606999 -0.696629721 -0.00486347442)
(4.3944277 -0.000309711637 0.341552697)
(3.85579074 -0.000854615215 0.527465954)
(3.26896077 -0.00153067565 0.417932918)
(2.68897848 -0.00252556198 0.263710404)
(2.29405699 -0.00397614561 0.147697294)
(2.05453428 -0.00599771834 0.0754858015)
(1.90068301 -0.00867921364 0.0364133134)
(1.79908636 -0.0121058043 0.0175918783)
(1.73174141 -0.0163886267 0.00928865652)
(1.68480375 -0.0216743219 0.00595870451)
(1.64926847 -0.028151499 0.00477331248)
(1.62022097 -0.036064256 0.00436085378)
(1.59498326 -0.0457312341 0.00413369085)
(1.57199952 -0.0575711076 0.00388851829)
(1.55035092 -0.0721377719 0.00357697092)
(1.5295172 -0.0901683215 0.00319985774)
(1.50927513 -0.112647096 0.0027651085)
(1.48971676 -0.140889153 0.00227114613)
(1.47138336 -0.176644262 0.00170076534)
(1.45553979 -0.222214184 0.00102045681)
(1.44465323 -0.280552778 0.000185706003)
(1.44317863 -0.355250886 -0.000837197678)
(1.45878106 -0.450265181 -0.00202147134)
(1.5041046 -0.568884355 -0.00321642515)
(1.59915449 -0.710886798 -0.00418676128)
(1.77146371 -0.865834023 -0.00445614111)
(2.0603897 -0.999488307 -0.00472177877)