/*--------------------------------*- C++ -*----------------------------------*\
| =========                 |                                                 |
| \\      /  F ield         | foam-extend: Open Source CFD                    |
|  \\    /   O peration     | Version:     4.1                                |
|   \\  /    A nd           | Web:         http://www.foam-extend.org         |
|    \\/     M anipulation  |                                                 |
\*---------------------------------------------------------------------------*/
FoamFile
{
    version     2.0;
    format      ascii;
    class       volScalarField::DimensionedInternalField;
    location    "0.5";
    object      V0;
}
// * * * * * * * * * * * * * * * * * * * * * * * * * * * * * * * * * * * * * //

dimensions      [0 3 0 0 0 0 0];

value           nonuniform List<scalar> 
35840
(
1.00000014e-06
1.00000042e-06
1.00000071e-06
1.00000102e-06
1.00000137e-06
1.00000176e-06
1.00000222e-06
1.00000275e-06
1.00000337e-06
1.00000408e-06
1.00000491e-06
1.00000586e-06
1.00000694e-06
1.00000815e-06
1.00000951e-06
1.00001101e-06
1.00001265e-06
1.0000144e-06
1.00001626e-06
1.0000182e-06
1.00002017e-06
1.00002216e-06
1.0000241e-06
1.00002595e-06
1.00002765e-06
1.00002917e-06
1.00003044e-06
1.00003143e-06
1.00000014e-06
1.00000043e-06
1.00000072e-06
1.00000104e-06
1.0000014e-06
1.0000018e-06
1.00000227e-06
1.00000282e-06
1.00000345e-06
1.00000419e-06
1.00000504e-06
1.00000602e-06
1.00000715e-06
1.00000841e-06
1.00000983e-06
1.00001139e-06
1.0000131e-06
1.00001495e-06
1.0000169e-06
1.00001894e-06
1.00002103e-06
1.00002312e-06
1.00002518e-06
1.00002714e-06
1.00002895e-06
1.00003057e-06
1.00003192e-06
1.00003298e-06
1.00000015e-06
1.00000045e-06
1.00000076e-06
1.0000011e-06
1.00000148e-06
1.00000191e-06
1.00000242e-06
1.000003e-06
1.00000369e-06
1.00000449e-06
1.00000543e-06
1.00000651e-06
1.00000774e-06
1.00000914e-06
1.00001072e-06
1.00001247e-06
1.00001439e-06
1.00001647e-06
1.00001869e-06
1.00002101e-06
1.00002339e-06
1.0000258e-06
1.00002816e-06
1.00003043e-06
1.00003253e-06
1.0000344e-06
1.00003598e-06
1.00003722e-06
1.00000016e-06
1.00000049e-06
1.00000084e-06
1.00000121e-06
1.00000163e-06
1.00000212e-06
1.00000268e-06
1.00000335e-06
1.00000413e-06
1.00000505e-06
1.00000612e-06
1.00000738e-06
1.00000882e-06
1.00001047e-06
1.00001234e-06
1.00001442e-06
1.00001672e-06
1.00001923e-06
1.00002191e-06
1.00002474e-06
1.00002767e-06
1.00003063e-06
1.00003357e-06
1.00003638e-06
1.00003901e-06
1.00004135e-06
1.00004333e-06
1.00004489e-06
1.00000018e-06
1.00000056e-06
1.00000095e-06
1.00000137e-06
1.00000185e-06
1.00000241e-06
1.00000307e-06
1.00000384e-06
1.00000476e-06
1.00000586e-06
1.00000714e-06
1.00000865e-06
1.0000104e-06
1.00001242e-06
1.00001472e-06
1.0000173e-06
1.00002017e-06
1.00002332e-06
1.00002672e-06
1.00003032e-06
1.00003407e-06
1.00003788e-06
1.00004167e-06
1.00004534e-06
1.00004876e-06
1.00005183e-06
1.00005444e-06
1.00005648e-06
1.00000021e-06
1.00000064e-06
1.00000109e-06
1.00000158e-06
1.00000214e-06
1.0000028e-06
1.00000357e-06
1.0000045e-06
1.00000561e-06
1.00000693e-06
1.0000085e-06
1.00001036e-06
1.00001253e-06
1.00001505e-06
1.00001794e-06
1.00002122e-06
1.00002488e-06
1.00002893e-06
1.00003333e-06
1.00003802e-06
1.00004293e-06
1.00004796e-06
1.00005298e-06
1.00005786e-06
1.00006243e-06
1.00006655e-06
1.00007006e-06
1.00007282e-06
1.00000025e-06
1.00000074e-06
1.00000126e-06
1.00000184e-06
1.0000025e-06
1.00000328e-06
1.00000421e-06
1.00000533e-06
1.00000667e-06
1.00000829e-06
1.00001024e-06
1.00001254e-06
1.00001527e-06
1.00001845e-06
1.00002212e-06
1.00002632e-06
1.00003105e-06
1.00003631e-06
1.00004206e-06
1.00004824e-06
1.00005475e-06
1.00006146e-06
1.00006819e-06
1.00007476e-06
1.00008096e-06
1.00008655e-06
1.00009132e-06
1.00009509e-06
1.00000029e-06
1.00000086e-06
1.00000147e-06
1.00000215e-06
1.00000293e-06
1.00000386e-06
1.00000497e-06
1.00000633e-06
1.00000797e-06
1.00000997e-06
1.00001237e-06
1.00001525e-06
1.00001868e-06
1.00002271e-06
1.0000274e-06
1.0000328e-06
1.00003893e-06
1.00004579e-06
1.00005334e-06
1.00006152e-06
1.00007019e-06
1.00007918e-06
1.00008826e-06
1.00009716e-06
1.00010559e-06
1.00011322e-06
1.00011977e-06
1.00012494e-06
1.00000033e-06
1.00000101e-06
1.00000172e-06
1.00000251e-06
1.00000344e-06
1.00000454e-06
1.00000588e-06
1.00000752e-06
1.00000953e-06
1.00001198e-06
1.00001495e-06
1.00001855e-06
1.00002285e-06
1.00002795e-06
1.00003393e-06
1.00004087e-06
1.00004881e-06
1.00005776e-06
1.0000677e-06
1.00007852e-06
1.00009008e-06
1.00010213e-06
1.00011439e-06
1.00012648e-06
1.00013797e-06
1.00014843e-06
1.00015742e-06
1.00016455e-06
1.00000038e-06
1.00000117e-06
1.000002e-06
1.00000293e-06
1.00000401e-06
1.00000533e-06
1.00000693e-06
1.00000891e-06
1.00001135e-06
1.00001434e-06
1.00001802e-06
1.00002248e-06
1.00002786e-06
1.0000343e-06
1.0000419e-06
1.00005079e-06
1.00006105e-06
1.0000727e-06
1.00008573e-06
1.00010004e-06
1.00011542e-06
1.00013159e-06
1.00014813e-06
1.00016454e-06
1.00018023e-06
1.00019457e-06
1.00020694e-06
1.00021676e-06
1.00000044e-06
1.00000134e-06
1.0000023e-06
1.00000339e-06
1.00000467e-06
1.00000622e-06
1.00000812e-06
1.00001049e-06
1.00001344e-06
1.00001709e-06
1.00002159e-06
1.0000271e-06
1.0000338e-06
1.00004188e-06
1.0000515e-06
1.00006283e-06
1.00007602e-06
1.00009112e-06
1.00010815e-06
1.000127e-06
1.00014743e-06
1.00016906e-06
1.00019135e-06
1.00021361e-06
1.00023501e-06
1.00025467e-06
1.00027169e-06
1.00028526e-06
1.00000051e-06
1.00000154e-06
1.00000264e-06
1.00000389e-06
1.00000538e-06
1.0000072e-06
1.00000946e-06
1.00001227e-06
1.0000158e-06
1.00002021e-06
1.00002569e-06
1.00003245e-06
1.00004073e-06
1.0000508e-06
1.00006289e-06
1.00007725e-06
1.0000941e-06
1.00011358e-06
1.00013573e-06
1.00016046e-06
1.00018749e-06
1.00021635e-06
1.00024632e-06
1.00027645e-06
1.00030562e-06
1.00033256e-06
1.00035598e-06
1.00037471e-06
1.00000058e-06
1.00000175e-06
1.000003e-06
1.00000443e-06
1.00000615e-06
1.00000826e-06
1.0000109e-06
1.00001423e-06
1.00001843e-06
1.00002371e-06
1.00003032e-06
1.00003854e-06
1.0000487e-06
1.00006113e-06
1.00007621e-06
1.00009429e-06
1.00011568e-06
1.00014063e-06
1.00016927e-06
1.00020155e-06
1.00023716e-06
1.00027551e-06
1.00031568e-06
1.00035639e-06
1.00039608e-06
1.00043295e-06
1.00046517e-06
1.00049102e-06
1.00000064e-06
1.00000196e-06
1.00000337e-06
1.000005e-06
1.00000695e-06
1.00000937e-06
1.00001244e-06
1.00001633e-06
1.00002127e-06
1.00002753e-06
1.00003544e-06
1.00004535e-06
1.00005768e-06
1.00007292e-06
1.00009156e-06
1.0001141e-06
1.00014104e-06
1.00017277e-06
1.00020955e-06
1.00025141e-06
1.00029806e-06
1.0003488e-06
1.00040244e-06
1.00045729e-06
1.00051118e-06
1.0005616e-06
1.0006059e-06
1.00064156e-06
1.00000071e-06
1.00000218e-06
1.00000375e-06
1.00000557e-06
1.00000778e-06
1.00001054e-06
1.00001405e-06
1.00001853e-06
1.00002428e-06
1.00003162e-06
1.00004096e-06
1.00005278e-06
1.00006763e-06
1.0000861e-06
1.0001089e-06
1.00013676e-06
1.00017037e-06
1.00021037e-06
1.00025722e-06
1.00031111e-06
1.00037183e-06
1.00043858e-06
1.00050989e-06
1.00058353e-06
1.00065655e-06
1.0007254e-06
1.00078626e-06
1.00083548e-06
1.00000078e-06
1.00000239e-06
1.00000413e-06
1.00000614e-06
1.0000086e-06
1.00001171e-06
1.00001567e-06
1.00002079e-06
1.00002739e-06
1.00003588e-06
1.00004678e-06
1.00006069e-06
1.0000783e-06
1.00010045e-06
1.00012808e-06
1.00016215e-06
1.00020364e-06
1.00025354e-06
1.00031266e-06
1.00038145e-06
1.00045987e-06
1.00054711e-06
1.0006414e-06
1.00073987e-06
1.00083853e-06
1.00093241e-06
1.001016e-06
1.00108396e-06
1.00000085e-06
1.00000259e-06
1.00000448e-06
1.00000668e-06
1.00000939e-06
1.00001283e-06
1.00001726e-06
1.00002301e-06
1.00003048e-06
1.00004018e-06
1.00005273e-06
1.00006886e-06
1.00008948e-06
1.00011571e-06
1.00014877e-06
1.00018991e-06
1.0002405e-06
1.00030204e-06
1.00037581e-06
1.00046273e-06
1.0005631e-06
1.00067623e-06
1.0008001e-06
1.00093115e-06
1.00106405e-06
1.0011919e-06
1.00130675e-06
1.0014007e-06
1.00000091e-06
1.00000276e-06
1.00000479e-06
1.00000717e-06
1.00001011e-06
1.00001386e-06
1.00001874e-06
1.00002511e-06
1.00003345e-06
1.00004435e-06
1.00005856e-06
1.00007702e-06
1.00010086e-06
1.00013142e-06
1.00017023e-06
1.00021908e-06
1.00028005e-06
1.00035505e-06
1.00044593e-06
1.00055445e-06
1.00068155e-06
1.00082688e-06
1.00098838e-06
1.00116179e-06
1.00134025e-06
1.00151424e-06
1.00167228e-06
1.00180256e-06
1.00000095e-06
1.00000291e-06
1.00000505e-06
1.00000757e-06
1.00001071e-06
1.00001474e-06
1.00002001e-06
1.00002695e-06
1.0000361e-06
1.00004816e-06
1.000064e-06
1.00008474e-06
1.00011175e-06
1.00014669e-06
1.00019151e-06
1.00024865e-06
1.00032077e-06
1.0004106e-06
1.00052109e-06
1.00065489e-06
1.00081386e-06
1.00099849e-06
1.00120713e-06
1.00143513e-06
1.00167397e-06
1.00191081e-06
1.00212911e-06
1.00231093e-06
1.00000098e-06
1.000003e-06
1.00000522e-06
1.00000785e-06
1.00001114e-06
1.0000154e-06
1.00002099e-06
1.00002841e-06
1.00003826e-06
1.00005133e-06
1.00006864e-06
1.00009149e-06
1.00012149e-06
1.00016067e-06
1.00021154e-06
1.00027711e-06
1.00036074e-06
1.00046637e-06
1.00059836e-06
1.00076071e-06
1.00095665e-06
1.00118815e-06
1.00145474e-06
1.00175225e-06
1.00207095e-06
1.00239407e-06
1.00269794e-06
1.00295477e-06
1.000001e-06
1.00000304e-06
1.0000053e-06
1.00000798e-06
1.00001137e-06
1.00001577e-06
1.00002159e-06
1.00002935e-06
1.00003972e-06
1.00005359e-06
1.0000721e-06
1.00009671e-06
1.00012934e-06
1.00017237e-06
1.0002288e-06
1.00030232e-06
1.0003974e-06
1.00051923e-06
1.00067345e-06
1.0008663e-06
1.00110375e-06
1.00138967e-06
1.00172584e-06
1.0021107e-06
1.00253493e-06
1.00297812e-06
1.00340705e-06
1.00377773e-06
1.00000099e-06
1.00000302e-06
1.00000526e-06
1.00000794e-06
1.00001134e-06
1.00001579e-06
1.0000217e-06
1.00002963e-06
1.0000403e-06
1.00005465e-06
1.00007394e-06
1.00009981e-06
1.00013438e-06
1.00018041e-06
1.00024142e-06
1.00032182e-06
1.00042711e-06
1.0005639e-06
1.00073981e-06
1.00096351e-06
1.00124401e-06
1.00158995e-06
1.00200859e-06
1.00250265e-06
1.00306664e-06
1.00368035e-06
1.00429991e-06
1.00485428e-06
1.00000095e-06
1.00000292e-06
1.0000051e-06
1.00000771e-06
1.00001103e-06
1.00001541e-06
1.00002125e-06
1.00002914e-06
1.0000398e-06
1.00005424e-06
1.00007378e-06
1.00010016e-06
1.00013572e-06
1.00018348e-06
1.0002474e-06
1.0003326e-06
1.00044553e-06
1.00059429e-06
1.00078879e-06
1.00104058e-06
1.00136306e-06
1.00177216e-06
1.00228441e-06
1.0029126e-06
1.00366258e-06
1.00452464e-06
1.0054503e-06
1.00632478e-06
1.0000009e-06
1.00000274e-06
1.00000479e-06
1.00000726e-06
1.00001042e-06
1.00001459e-06
1.00002019e-06
1.00002778e-06
1.0000381e-06
1.00005215e-06
1.00007127e-06
1.00009727e-06
1.00013256e-06
1.00018035e-06
1.00024491e-06
1.00033184e-06
1.00044846e-06
1.00060422e-06
1.00081121e-06
1.00108467e-06
1.00144422e-06
1.00191436e-06
1.00252479e-06
1.00331161e-06
1.0043108e-06
1.00554499e-06
1.00698754e-06
1.00846494e-06
1.00000081e-06
1.00000249e-06
1.00000435e-06
1.0000066e-06
1.00000949e-06
1.00001332e-06
1.00001849e-06
1.00002552e-06
1.00003512e-06
1.00004825e-06
1.00006621e-06
1.00009078e-06
1.00012434e-06
1.00017012e-06
1.00023246e-06
1.0003172e-06
1.00043213e-06
1.00058771e-06
1.00079792e-06
1.00108163e-06
1.00146475e-06
1.00198317e-06
1.00268715e-06
1.00364961e-06
1.00497488e-06
1.00677795e-06
1.00912303e-06
1.01179139e-06
1.0000007e-06
1.00000215e-06
1.00000377e-06
1.00000573e-06
1.00000826e-06
1.00001161e-06
1.00001615e-06
1.00002235e-06
1.00003085e-06
1.00004252e-06
1.00005855e-06
1.00008058e-06
1.00011083e-06
1.00015234e-06
1.00020925e-06
1.00028723e-06
1.00039399e-06
1.00054021e-06
1.00074075e-06
1.00101687e-06
1.0014e-06
1.00193859e-06
1.00271054e-06
1.00384439e-06
1.0055564e-06
1.00819458e-06
1.01210755e-06
1.01705788e-06
1.00000057e-06
1.00000175e-06
1.00000307e-06
1.00000467e-06
1.00000674e-06
1.0000095e-06
1.00001324e-06
1.00001835e-06
1.00002539e-06
1.00003508e-06
1.00004843e-06
1.00006685e-06
1.00009224e-06
1.00012724e-06
1.00017547e-06
1.00024194e-06
1.00033361e-06
1.00046027e-06
1.00063605e-06
1.00088205e-06
1.00123171e-06
1.00174165e-06
1.00251499e-06
1.0037494e-06
1.00582504e-06
1.00944493e-06
1.01587456e-06
1.02423521e-06
1.00000042e-06
1.00000129e-06
1.00000227e-06
1.00000346e-06
1.00000499e-06
1.00000704e-06
1.00000983e-06
1.00001365e-06
1.00001891e-06
1.00002617e-06
1.0000362e-06
1.00005007e-06
1.00006925e-06
1.00009575e-06
1.0001324e-06
1.0001831e-06
1.00025333e-06
1.00035088e-06
1.00048718e-06
1.00067981e-06
1.00095767e-06
1.00137282e-06
1.00202837e-06
1.00314587e-06
1.005216e-06
1.0092148e-06
1.01609616e-06
1.03606079e-06
1.0000004e-06
1.00000121e-06
1.00000205e-06
1.00000296e-06
1.00000397e-06
1.00000512e-06
1.00000644e-06
1.00000798e-06
1.00000977e-06
1.00001185e-06
1.00001425e-06
1.000017e-06
1.00002013e-06
1.00002367e-06
1.00002761e-06
1.00003196e-06
1.0000367e-06
1.0000418e-06
1.00004719e-06
1.00005281e-06
1.00005855e-06
1.0000643e-06
1.00006993e-06
1.0000753e-06
1.00008025e-06
1.00008464e-06
1.00008834e-06
1.00009122e-06
1.00000041e-06
1.00000124e-06
1.00000209e-06
1.00000302e-06
1.00000405e-06
1.00000523e-06
1.00000659e-06
1.00000817e-06
1.00001001e-06
1.00001215e-06
1.00001463e-06
1.00001748e-06
1.00002074e-06
1.00002441e-06
1.00002852e-06
1.00003307e-06
1.00003803e-06
1.00004338e-06
1.00004905e-06
1.00005496e-06
1.00006102e-06
1.00006711e-06
1.00007307e-06
1.00007877e-06
1.00008403e-06
1.00008871e-06
1.00009265e-06
1.00009572e-06
1.00000043e-06
1.00000131e-06
1.00000222e-06
1.0000032e-06
1.0000043e-06
1.00000555e-06
1.00000701e-06
1.00000872e-06
1.00001071e-06
1.00001304e-06
1.00001575e-06
1.00001888e-06
1.00002247e-06
1.00002654e-06
1.00003111e-06
1.0000362e-06
1.00004177e-06
1.0000478e-06
1.00005423e-06
1.00006096e-06
1.00006789e-06
1.00007487e-06
1.00008174e-06
1.00008831e-06
1.00009441e-06
1.00009984e-06
1.00010443e-06
1.00010802e-06
1.00000048e-06
1.00000144e-06
1.00000244e-06
1.00000352e-06
1.00000474e-06
1.00000614e-06
1.00000778e-06
1.00000971e-06
1.00001198e-06
1.00001465e-06
1.00001777e-06
1.00002141e-06
1.0000256e-06
1.00003038e-06
1.0000358e-06
1.00004185e-06
1.00004853e-06
1.0000558e-06
1.0000636e-06
1.00007181e-06
1.0000803e-06
1.00008891e-06
1.00009741e-06
1.00010559e-06
1.0001132e-06
1.00012e-06
1.00012576e-06
1.00013028e-06
1.00000054e-06
1.00000162e-06
1.00000275e-06
1.00000398e-06
1.00000538e-06
1.00000699e-06
1.0000089e-06
1.00001115e-06
1.00001383e-06
1.00001699e-06
1.00002073e-06
1.00002511e-06
1.00003019e-06
1.00003604e-06
1.0000427e-06
1.00005021e-06
1.00005854e-06
1.00006768e-06
1.00007754e-06
1.00008799e-06
1.00009886e-06
1.00010994e-06
1.00012094e-06
1.00013157e-06
1.00014151e-06
1.00015042e-06
1.00015798e-06
1.00016392e-06
1.00000061e-06
1.00000186e-06
1.00000316e-06
1.00000459e-06
1.00000621e-06
1.00000811e-06
1.00001037e-06
1.00001306e-06
1.00001628e-06
1.00002012e-06
1.00002468e-06
1.00003007e-06
1.00003637e-06
1.00004368e-06
1.00005206e-06
1.00006157e-06
1.00007221e-06
1.00008396e-06
1.00009671e-06
1.00011033e-06
1.00012458e-06
1.00013917e-06
1.00015376e-06
1.00016791e-06
1.00018119e-06
1.00019314e-06
1.00020331e-06
1.00021132e-06
1.00000071e-06
1.00000215e-06
1.00000367e-06
1.00000534e-06
1.00000726e-06
1.00000951e-06
1.00001221e-06
1.00001545e-06
1.00001937e-06
1.00002407e-06
1.00002971e-06
1.0000364e-06
1.0000443e-06
1.00005353e-06
1.0000642e-06
1.00007638e-06
1.00009011e-06
1.00010537e-06
1.00012207e-06
1.00014e-06
1.00015889e-06
1.00017835e-06
1.0001979e-06
1.00021697e-06
1.00023494e-06
1.00025117e-06
1.00026502e-06
1.00027595e-06
1.00000083e-06
1.00000251e-06
1.00000428e-06
1.00000624e-06
1.00000851e-06
1.0000112e-06
1.00001444e-06
1.00001837e-06
1.00002314e-06
1.00002893e-06
1.00003591e-06
1.00004427e-06
1.0000542e-06
1.0000659e-06
1.00007951e-06
1.00009518e-06
1.00011297e-06
1.00013288e-06
1.00015481e-06
1.00017854e-06
1.0002037e-06
1.00022978e-06
1.00025613e-06
1.00028196e-06
1.00030642e-06
1.00032858e-06
1.00034757e-06
1.00036258e-06
1.00000096e-06
1.00000292e-06
1.00000499e-06
1.00000729e-06
1.00000997e-06
1.00001318e-06
1.00001707e-06
1.00002183e-06
1.00002765e-06
1.00003476e-06
1.0000434e-06
1.00005383e-06
1.00006631e-06
1.00008111e-06
1.00009848e-06
1.00011861e-06
1.00014165e-06
1.00016763e-06
1.00019646e-06
1.00022787e-06
1.00026141e-06
1.0002964e-06
1.00033197e-06
1.00036704e-06
1.0004004e-06
1.00043076e-06
1.00045685e-06
1.00047752e-06
1.00000111e-06
1.00000338e-06
1.00000579e-06
1.00000849e-06
1.00001165e-06
1.00001546e-06
1.00002012e-06
1.00002585e-06
1.00003293e-06
1.00004163e-06
1.00005228e-06
1.00006524e-06
1.00008086e-06
1.00009953e-06
1.00012161e-06
1.00014741e-06
1.00017717e-06
1.00021098e-06
1.0002488e-06
1.00029031e-06
1.00033496e-06
1.00038188e-06
1.00042988e-06
1.0004775e-06
1.00052302e-06
1.00056464e-06
1.00060053e-06
1.00062905e-06
1.00000128e-06
1.00000389e-06
1.00000669e-06
1.00000983e-06
1.00001354e-06
1.00001804e-06
1.00002358e-06
1.00003045e-06
1.000039e-06
1.00004959e-06
1.00006265e-06
1.00007865e-06
1.0000981e-06
1.00012153e-06
1.00014945e-06
1.00018235e-06
1.0002206e-06
1.00026444e-06
1.00031386e-06
1.00036856e-06
1.00042785e-06
1.00049063e-06
1.00055531e-06
1.00061989e-06
1.00068199e-06
1.00073904e-06
1.00078844e-06
1.00082779e-06
1.00000147e-06
1.00000446e-06
1.00000766e-06
1.00001129e-06
1.00001561e-06
1.0000209e-06
1.00002744e-06
1.00003562e-06
1.00004586e-06
1.00005865e-06
1.00007455e-06
1.00009417e-06
1.00011822e-06
1.00014741e-06
1.0001825e-06
1.0002242e-06
1.00027309e-06
1.00032962e-06
1.0003939e-06
1.00046566e-06
1.00054411e-06
1.00062785e-06
1.00071481e-06
1.00080225e-06
1.00088688e-06
1.00096503e-06
1.00103299e-06
1.00108731e-06
1.00000167e-06
1.00000507e-06
1.0000087e-06
1.00001286e-06
1.00001784e-06
1.00002396e-06
1.00003162e-06
1.00004129e-06
1.00005348e-06
1.0000688e-06
1.00008798e-06
1.00011185e-06
1.00014132e-06
1.00017742e-06
1.00022118e-06
1.00027363e-06
1.0003357e-06
1.00040812e-06
1.00049123e-06
1.00058489e-06
1.00068822e-06
1.00079951e-06
1.00091606e-06
1.00103418e-06
1.00114931e-06
1.00125628e-06
1.00134974e-06
1.0014247e-06
1.00000187e-06
1.00000568e-06
1.00000979e-06
1.0000145e-06
1.00002017e-06
1.0000272e-06
1.00003609e-06
1.00004738e-06
1.00006171e-06
1.00007991e-06
1.00010286e-06
1.00013161e-06
1.00016741e-06
1.00021162e-06
1.0002657e-06
1.00033114e-06
1.00040931e-06
1.00050139e-06
1.00060812e-06
1.00072958e-06
1.00086494e-06
1.00101215e-06
1.00116777e-06
1.00132687e-06
1.00148318e-06
1.0016294e-06
1.00175783e-06
1.00186124e-06
1.00000207e-06
1.00000631e-06
1.00001089e-06
1.00001617e-06
1.00002257e-06
1.00003058e-06
1.00004077e-06
1.00005378e-06
1.00007046e-06
1.00009177e-06
1.00011887e-06
1.00015319e-06
1.00019627e-06
1.00024986e-06
1.00031604e-06
1.00039689e-06
1.00049442e-06
1.00061048e-06
1.00074642e-06
1.0009028e-06
1.00107896e-06
1.00127258e-06
1.00147941e-06
1.00169296e-06
1.00190465e-06
1.0021042e-06
1.00228056e-06
1.00242317e-06
1.00000228e-06
1.00000693e-06
1.00001198e-06
1.00001783e-06
1.00002497e-06
1.00003397e-06
1.00004548e-06
1.00006033e-06
1.00007948e-06
1.00010413e-06
1.00013576e-06
1.00017612e-06
1.00022722e-06
1.00029152e-06
1.0003717e-06
1.00047055e-06
1.00059095e-06
1.00073575e-06
1.00090726e-06
1.00110684e-06
1.00133432e-06
1.0015873e-06
1.00186067e-06
1.00214608e-06
1.00243191e-06
1.00270377e-06
1.00294576e-06
1.0031424e-06
1.00000246e-06
1.00000751e-06
1.000013e-06
1.0000194e-06
1.00002727e-06
1.00003724e-06
1.0000501e-06
1.00006678e-06
1.00008846e-06
1.00011661e-06
1.00015303e-06
1.00019983e-06
1.00025967e-06
1.00033578e-06
1.00043172e-06
1.00055111e-06
1.00069791e-06
1.00087644e-06
1.00109044e-06
1.00134257e-06
1.00163362e-06
1.00196153e-06
1.00232045e-06
1.00269993e-06
1.00308453e-06
1.00345422e-06
1.00378608e-06
1.00405732e-06
1.00000263e-06
1.00000802e-06
1.00001391e-06
1.0000208e-06
1.00002934e-06
1.00004024e-06
1.00005438e-06
1.00007286e-06
1.00009706e-06
1.00012871e-06
1.00016996e-06
1.00022351e-06
1.00029269e-06
1.00038138e-06
1.00049399e-06
1.00063575e-06
1.00081263e-06
1.00103022e-06
1.0012938e-06
1.00160845e-06
1.00197685e-06
1.0023978e-06
1.00286526e-06
1.00336674e-06
1.00388217e-06
1.00438398e-06
1.00483916e-06
1.00521384e-06
1.00000276e-06
1.00000843e-06
1.00001464e-06
1.00002196e-06
1.00003107e-06
1.00004278e-06
1.00005808e-06
1.00007821e-06
1.00010476e-06
1.00013975e-06
1.00018573e-06
1.00024591e-06
1.00032431e-06
1.00042569e-06
1.00055573e-06
1.00072153e-06
1.00093076e-06
1.00119128e-06
1.00151164e-06
1.00189942e-06
1.00235982e-06
1.00289406e-06
1.00349699e-06
1.00415478e-06
1.00484242e-06
1.0055226e-06
1.00614785e-06
1.00666725e-06
1.00000285e-06
1.00000871e-06
1.00001515e-06
1.00002278e-06
1.00003233e-06
1.00004468e-06
1.00006093e-06
1.00008245e-06
1.00011103e-06
1.00014896e-06
1.0001992e-06
1.0002655e-06
1.00035257e-06
1.00046625e-06
1.00061385e-06
1.00080408e-06
1.00104664e-06
1.00135292e-06
1.00173545e-06
1.00220561e-06
1.00277248e-06
1.00344119e-06
1.00420967e-06
1.00506485e-06
1.00597758e-06
1.0068989e-06
1.00776103e-06
1.00848618e-06
1.00000289e-06
1.00000883e-06
1.00001538e-06
1.00002317e-06
1.00003298e-06
1.00004575e-06
1.00006265e-06
1.00008517e-06
1.00011528e-06
1.00015553e-06
1.00020923e-06
1.00028066e-06
1.00037533e-06
1.00050018e-06
1.00066392e-06
1.00087717e-06
1.00115287e-06
1.00150599e-06
1.00195266e-06
1.00251059e-06
1.00319641e-06
1.00402024e-06
1.0049855e-06
1.00608528e-06
1.00728999e-06
1.00853867e-06
1.0097363e-06
1.01076202e-06
1.00000286e-06
1.00000876e-06
1.00001527e-06
1.00002306e-06
1.00003292e-06
1.00004581e-06
1.00006297e-06
1.00008599e-06
1.00011695e-06
1.0001586e-06
1.00021458e-06
1.00028964e-06
1.00038995e-06
1.00052351e-06
1.00070048e-06
1.00093367e-06
1.00123888e-06
1.00163514e-06
1.00214416e-06
1.0027904e-06
1.00359867e-06
1.00459165e-06
1.00578658e-06
1.00718566e-06
1.00876575e-06
1.01046162e-06
1.01214614e-06
1.01362883e-06
1.00000277e-06
1.00000847e-06
1.00001479e-06
1.00002237e-06
1.00003202e-06
1.00004471e-06
1.00006168e-06
1.00008456e-06
1.00011551e-06
1.00015741e-06
1.00021411e-06
1.00029067e-06
1.00039382e-06
1.00053239e-06
1.00071781e-06
1.00096481e-06
1.00129205e-06
1.0017227e-06
1.00228484e-06
1.00301075e-06
1.00393687e-06
1.00510474e-06
1.00655411e-06
1.00830869e-06
1.0103661e-06
1.01267587e-06
1.01508694e-06
1.01729958e-06
1.0000026e-06
1.00000796e-06
1.00001391e-06
1.00002108e-06
1.00003024e-06
1.00004234e-06
1.0000586e-06
1.00008062e-06
1.00011057e-06
1.00015135e-06
1.00020684e-06
1.00028227e-06
1.00038465e-06
1.00052329e-06
1.00071052e-06
1.00096249e-06
1.00130023e-06
1.00175072e-06
1.00234806e-06
1.00313435e-06
1.00416221e-06
1.00549417e-06
1.00719971e-06
1.00935314e-06
1.01200884e-06
1.01516324e-06
1.0186792e-06
1.0221104e-06
1.00000235e-06
1.00000721e-06
1.00001262e-06
1.00001916e-06
1.00002755e-06
1.00003866e-06
1.00005365e-06
1.00007405e-06
1.00010191e-06
1.00014002e-06
1.00019215e-06
1.00026343e-06
1.00036079e-06
1.00049357e-06
1.00067433e-06
1.00091986e-06
1.00125254e-06
1.00170201e-06
1.00230744e-06
1.00312046e-06
1.00420927e-06
1.00566308e-06
1.00759626e-06
1.01015627e-06
1.01352207e-06
1.01782525e-06
1.0230116e-06
1.02848612e-06
1.00000204e-06
1.00000625e-06
1.00001094e-06
1.00001664e-06
1.00002396e-06
1.0000337e-06
1.00004688e-06
1.00006487e-06
1.00008953e-06
1.00012339e-06
1.00016991e-06
1.00023383e-06
1.00032158e-06
1.00044197e-06
1.00060695e-06
1.0008328e-06
1.00114162e-06
1.00156354e-06
1.00213987e-06
1.00292796e-06
1.00400896e-06
1.00550005e-06
1.00757297e-06
1.01047736e-06
1.01456921e-06
1.02030384e-06
1.02787635e-06
1.03646195e-06
1.00000166e-06
1.00000508e-06
1.00000891e-06
1.00001357e-06
1.00001956e-06
1.00002756e-06
1.00003841e-06
1.00005326e-06
1.00007367e-06
1.00010179e-06
1.00014055e-06
1.00019398e-06
1.00026763e-06
1.00036912e-06
1.00050891e-06
1.00070138e-06
1.00096635e-06
1.0013314e-06
1.00183539e-06
1.00253455e-06
1.00351329e-06
1.00490452e-06
1.00692738e-06
1.00995014e-06
1.01456064e-06
1.02158488e-06
1.03202049e-06
1.04369501e-06
1.00000122e-06
1.00000375e-06
1.00000659e-06
1.00001004e-06
1.00001449e-06
1.00002044e-06
1.00002852e-06
1.00003961e-06
1.00005487e-06
1.00007595e-06
1.00010506e-06
1.0001453e-06
1.00020091e-06
1.00027777e-06
1.00038398e-06
1.00053073e-06
1.0007336e-06
1.00101443e-06
1.00140446e-06
1.00194981e-06
1.00272195e-06
1.00383919e-06
1.00551174e-06
1.00813289e-06
1.01242815e-06
1.01946403e-06
1.02928855e-06
1.05511738e-06
1.00000062e-06
1.00000189e-06
1.0000032e-06
1.00000461e-06
1.00000618e-06
1.00000797e-06
1.00001004e-06
1.00001243e-06
1.00001522e-06
1.00001845e-06
1.00002219e-06
1.00002648e-06
1.00003136e-06
1.00003686e-06
1.000043e-06
1.00004978e-06
1.00005716e-06
1.0000651e-06
1.0000735e-06
1.00008225e-06
1.00009119e-06
1.00010015e-06
1.00010892e-06
1.00011728e-06
1.000125e-06
1.00013184e-06
1.0001376e-06
1.00014208e-06
1.00000064e-06
1.00000192e-06
1.00000326e-06
1.00000471e-06
1.00000631e-06
1.00000814e-06
1.00001026e-06
1.00001272e-06
1.00001559e-06
1.00001893e-06
1.00002279e-06
1.00002723e-06
1.0000323e-06
1.00003802e-06
1.00004443e-06
1.0000515e-06
1.00005923e-06
1.00006756e-06
1.00007639e-06
1.00008561e-06
1.00009505e-06
1.00010452e-06
1.00011381e-06
1.00012268e-06
1.00013088e-06
1.00013816e-06
1.0001443e-06
1.00014909e-06
1.00000067e-06
1.00000204e-06
1.00000345e-06
1.00000498e-06
1.00000669e-06
1.00000865e-06
1.00001092e-06
1.00001358e-06
1.00001668e-06
1.00002031e-06
1.00002453e-06
1.00002941e-06
1.00003499e-06
1.00004133e-06
1.00004846e-06
1.00005638e-06
1.00006506e-06
1.00007445e-06
1.00008446e-06
1.00009495e-06
1.00010574e-06
1.00011661e-06
1.00012731e-06
1.00013755e-06
1.00014705e-06
1.00015551e-06
1.00016266e-06
1.00016824e-06
1.00000074e-06
1.00000224e-06
1.00000379e-06
1.00000548e-06
1.00000738e-06
1.00000957e-06
1.00001212e-06
1.00001512e-06
1.00001866e-06
1.00002282e-06
1.00002768e-06
1.00003334e-06
1.00003987e-06
1.00004732e-06
1.00005576e-06
1.00006519e-06
1.00007559e-06
1.00008692e-06
1.00009905e-06
1.00011185e-06
1.00012508e-06
1.00013847e-06
1.00015172e-06
1.00016446e-06
1.00017632e-06
1.00018691e-06
1.00019588e-06
1.00020291e-06
1.00000083e-06
1.00000252e-06
1.00000428e-06
1.0000062e-06
1.00000838e-06
1.00001089e-06
1.00001386e-06
1.00001737e-06
1.00002153e-06
1.00002647e-06
1.00003229e-06
1.0000391e-06
1.00004702e-06
1.00005613e-06
1.00006651e-06
1.0000782e-06
1.00009119e-06
1.00010542e-06
1.00012077e-06
1.00013705e-06
1.00015398e-06
1.00017123e-06
1.00018837e-06
1.00020493e-06
1.00022041e-06
1.00023428e-06
1.00024606e-06
1.0002553e-06
1.00000096e-06
1.00000289e-06
1.00000492e-06
1.00000715e-06
1.00000968e-06
1.00001264e-06
1.00001615e-06
1.00002034e-06
1.00002535e-06
1.00003133e-06
1.00003844e-06
1.00004683e-06
1.00005665e-06
1.00006803e-06
1.00008109e-06
1.0000959e-06
1.00011248e-06
1.00013077e-06
1.00015064e-06
1.00017184e-06
1.00019404e-06
1.00021677e-06
1.00023948e-06
1.00026153e-06
1.00028221e-06
1.00030082e-06
1.00031667e-06
1.00032913e-06
1.00000111e-06
1.00000336e-06
1.00000572e-06
1.00000832e-06
1.0000113e-06
1.00001482e-06
1.00001901e-06
1.00002407e-06
1.00003016e-06
1.00003749e-06
1.00004627e-06
1.0000567e-06
1.000069e-06
1.00008338e-06
1.00009999e-06
1.00011896e-06
1.00014035e-06
1.00016413e-06
1.00019012e-06
1.00021805e-06
1.00024748e-06
1.00027779e-06
1.00030824e-06
1.00033794e-06
1.00036593e-06
1.0003912e-06
1.00041278e-06
1.0004298e-06
1.00000129e-06
1.00000391e-06
1.00000666e-06
1.00000972e-06
1.00001325e-06
1.00001744e-06
1.00002249e-06
1.00002861e-06
1.00003605e-06
1.00004506e-06
1.00005593e-06
1.00006895e-06
1.00008443e-06
1.00010264e-06
1.00012384e-06
1.00014824e-06
1.00017595e-06
1.00020697e-06
1.00024113e-06
1.00027808e-06
1.00031727e-06
1.00035789e-06
1.00039892e-06
1.00043916e-06
1.00047725e-06
1.00051177e-06
1.00054134e-06
1.00056472e-06
1.0000015e-06
1.00000454e-06
1.00000777e-06
1.00001136e-06
1.00001553e-06
1.00002053e-06
1.00002659e-06
1.000034e-06
1.00004307e-06
1.00005414e-06
1.0000676e-06
1.00008384e-06
1.00010328e-06
1.00012633e-06
1.00015338e-06
1.00018474e-06
1.00022063e-06
1.00026109e-06
1.000306e-06
1.00035492e-06
1.00040715e-06
1.00046165e-06
1.00051705e-06
1.00057167e-06
1.00062363e-06
1.0006709e-06
1.00071154e-06
1.00074373e-06
1.00000174e-06
1.00000527e-06
1.00000902e-06
1.00001322e-06
1.00001815e-06
1.00002408e-06
1.00003133e-06
1.00004027e-06
1.00005129e-06
1.00006484e-06
1.00008143e-06
1.00010161e-06
1.00012595e-06
1.00015503e-06
1.00018941e-06
1.0002296e-06
1.00027594e-06
1.00032861e-06
1.00038751e-06
1.00045217e-06
1.00052171e-06
1.00059478e-06
1.00066954e-06
1.00074369e-06
1.00081459e-06
1.0008794e-06
1.00093529e-06
1.0009797e-06
1.00000199e-06
1.00000607e-06
1.00001042e-06
1.00001532e-06
1.00002109e-06
1.00002809e-06
1.00003673e-06
1.00004743e-06
1.00006074e-06
1.00007723e-06
1.00009758e-06
1.0001225e-06
1.0001528e-06
1.00018929e-06
1.00023278e-06
1.00028402e-06
1.0003436e-06
1.00041187e-06
1.00048884e-06
1.00057403e-06
1.00066638e-06
1.00076414e-06
1.00086488e-06
1.00096544e-06
1.00106215e-06
1.00115099e-06
1.0012279e-06
1.00128918e-06
1.00000229e-06
1.00000695e-06
1.00001194e-06
1.00001758e-06
1.00002431e-06
1.00003254e-06
1.00004274e-06
1.00005548e-06
1.00007143e-06
1.00009135e-06
1.00011611e-06
1.00014668e-06
1.00018413e-06
1.0002296e-06
1.00028425e-06
1.00034919e-06
1.00042535e-06
1.00051338e-06
1.00061349e-06
1.00072525e-06
1.00084743e-06
1.00097784e-06
1.00111325e-06
1.00124941e-06
1.00138117e-06
1.00150285e-06
1.00160866e-06
1.00169322e-06
1.0000026e-06
1.00000789e-06
1.00001355e-06
1.00002003e-06
1.00002779e-06
1.00003732e-06
1.00004925e-06
1.00006431e-06
1.0000833e-06
1.00010716e-06
1.00013703e-06
1.0001742e-06
1.00022012e-06
1.00027633e-06
1.00034449e-06
1.00042618e-06
1.00052286e-06
1.00063564e-06
1.00076508e-06
1.00091093e-06
1.00107184e-06
1.00124513e-06
1.0014266e-06
1.00161049e-06
1.00178971e-06
1.00195621e-06
1.00210166e-06
1.00221831e-06
1.00000291e-06
1.00000885e-06
1.00001525e-06
1.00002259e-06
1.00003142e-06
1.00004237e-06
1.00005622e-06
1.0000738e-06
1.00009612e-06
1.00012446e-06
1.00016021e-06
1.00020499e-06
1.00026074e-06
1.0003296e-06
1.00041384e-06
1.00051575e-06
1.00063749e-06
1.00078089e-06
1.00094709e-06
1.00113624e-06
1.001347e-06
1.00157618e-06
1.00181842e-06
1.00206604e-06